<VTKFile type="UnstructuredGrid" version="1.0" header_type="UInt32">
<UnstructuredGrid>
<Piece NumberOfPoints="4288" NumberOfCells="2336">
<Points>
<DataArray type="Float32" NumberOfComponents="3" format="ascii">
0 15 0 0.3125 15 0
0 15.3125 0 0.3125 15.3125 0
0.3125 15 0 0.625 15 0
0.3125 15.3125 0 0.625 15.3125 0
0.625 15 0 0.9375 15 0
0.625 15.3125 0 0.9375 15.3125 0
0.9375 15 0 1.25 15 0
0.9375 15.3125 0 1.25 15.3125 0
1.25 15 0 1.5625 15 0
1.25 15.3125 0 1.5625 15.3125 0
1.5625 15 0 1.875 15 0
1.5625 15.3125 0 1.875 15.3125 0
1.875 15 0 2.1875 15 0
1.875 15.3125 0 2.1875 15.3125 0
2.1875 15 0 2.5 15 0
2.1875 15.3125 0 2.5 15.3125 0
2.5 15 0 2.8125 15 0
2.5 15.3125 0 2.8125 15.3125 0
2.8125 15 0 3.125 15 0
2.8125 15.3125 0 3.125 15.3125 0
3.125 15 0 3.4375 15 0
3.125 15.3125 0 3.4375 15.3125 0
3.4375 15 0 3.75 15 0
3.4375 15.3125 0 3.75 15.3125 0
3.75 15 0 4.0625 15 0
3.75 15.3125 0 4.0625 15.3125 0
4.0625 15 0 4.375 15 0
4.0625 15.3125 0 4.375 15.3125 0
4.375 15 0 4.6875 15 0
4.375 15.3125 0 4.6875 15.3125 0
4.6875 15 0 5 15 0
4.6875 15.3125 0 5 15.3125 0
5 15 0 5.3125 15 0
5 15.3125 0 5.3125 15.3125 0
5.3125 15 0 5.625 15 0
5.3125 15.3125 0 5.625 15.3125 0
5.625 15 0 5.9375 15 0
5.625 15.3125 0 5.9375 15.3125 0
5.9375 15 0 6.25 15 0
5.9375 15.3125 0 6.25 15.3125 0
6.25 15 0 6.5625 15 0
6.25 15.3125 0 6.5625 15.3125 0
6.5625 15 0 6.875 15 0
6.5625 15.3125 0 6.875 15.3125 0
6.875 15 0 7.1875 15 0
6.875 15.3125 0 7.1875 15.3125 0
7.1875 15 0 7.5 15 0
7.1875 15.3125 0 7.5 15.3125 0
7.5 15 0 7.8125 15 0
7.5 15.3125 0 7.8125 15.3125 0
7.8125 15 0 8.125 15 0
7.8125 15.3125 0 8.125 15.3125 0
8.125 15 0 8.4375 15 0
8.125 15.3125 0 8.4375 15.3125 0
8.4375 15 0 8.75 15 0
8.4375 15.3125 0 8.75 15.3125 0
8.75 15 0 9.0625 15 0
8.75 15.3125 0 9.0625 15.3125 0
9.0625 15 0 9.375 15 0
9.0625 15.3125 0 9.375 15.3125 0
9.375 15 0 9.6875 15 0
9.375 15.3125 0 9.6875 15.3125 0
9.6875 15 0 10 15 0
9.6875 15.3125 0 10 15.3125 0
0 15.3125 0 0.3125 15.3125 0
0 15.625 0 0.3125 15.625 0
0.3125 15.3125 0 0.625 15.3125 0
0.3125 15.625 0 0.625 15.625 0
0.625 15.3125 0 0.9375 15.3125 0
0.625 15.625 0 0.9375 15.625 0
0.9375 15.3125 0 1.25 15.3125 0
0.9375 15.625 0 1.25 15.625 0
1.25 15.3125 0 1.5625 15.3125 0
1.25 15.625 0 1.5625 15.625 0
1.5625 15.3125 0 1.875 15.3125 0
1.5625 15.625 0 1.875 15.625 0
1.875 15.3125 0 2.1875 15.3125 0
1.875 15.625 0 2.1875 15.625 0
2.1875 15.3125 0 2.5 15.3125 0
2.1875 15.625 0 2.5 15.625 0
2.5 15.3125 0 2.8125 15.3125 0
2.5 15.625 0 2.8125 15.625 0
2.8125 15.3125 0 3.125 15.3125 0
2.8125 15.625 0 3.125 15.625 0
3.125 15.3125 0 3.4375 15.3125 0
3.125 15.625 0 3.4375 15.625 0
3.4375 15.3125 0 3.75 15.3125 0
3.4375 15.625 0 3.75 15.625 0
3.75 15.3125 0 4.0625 15.3125 0
3.75 15.625 0 4.0625 15.625 0
4.0625 15.3125 0 4.375 15.3125 0
4.0625 15.625 0 4.375 15.625 0
4.375 15.3125 0 4.6875 15.3125 0
4.375 15.625 0 4.6875 15.625 0
4.6875 15.3125 0 5 15.3125 0
4.6875 15.625 0 5 15.625 0
5 15.3125 0 5.3125 15.3125 0
5 15.625 0 5.3125 15.625 0
5.3125 15.3125 0 5.625 15.3125 0
5.3125 15.625 0 5.625 15.625 0
5.625 15.3125 0 5.9375 15.3125 0
5.625 15.625 0 5.9375 15.625 0
5.9375 15.3125 0 6.25 15.3125 0
5.9375 15.625 0 6.25 15.625 0
6.25 15.3125 0 6.5625 15.3125 0
6.25 15.625 0 6.5625 15.625 0
6.5625 15.3125 0 6.875 15.3125 0
6.5625 15.625 0 6.875 15.625 0
6.875 15.3125 0 7.1875 15.3125 0
6.875 15.625 0 7.1875 15.625 0
7.1875 15.3125 0 7.5 15.3125 0
7.1875 15.625 0 7.5 15.625 0
7.5 15.3125 0 7.8125 15.3125 0
7.5 15.625 0 7.8125 15.625 0
7.8125 15.3125 0 8.125 15.3125 0
7.8125 15.625 0 8.125 15.625 0
8.125 15.3125 0 8.4375 15.3125 0
8.125 15.625 0 8.4375 15.625 0
8.4375 15.3125 0 8.75 15.3125 0
8.4375 15.625 0 8.75 15.625 0
8.75 15.3125 0 9.0625 15.3125 0
8.75 15.625 0 9.0625 15.625 0
9.0625 15.3125 0 9.375 15.3125 0
9.0625 15.625 0 9.375 15.625 0
9.375 15.3125 0 9.6875 15.3125 0
9.375 15.625 0 9.6875 15.625 0
9.6875 15.3125 0 10 15.3125 0
9.6875 15.625 0 10 15.625 0
0 15.625 0 0.3125 15.625 0
0 15.9375 0 0.3125 15.9375 0
0.3125 15.625 0 0.625 15.625 0
0.3125 15.9375 0 0.625 15.9375 0
0.625 15.625 0 0.9375 15.625 0
0.625 15.9375 0 0.9375 15.9375 0
0.9375 15.625 0 1.25 15.625 0
0.9375 15.9375 0 1.25 15.9375 0
1.25 15.625 0 1.5625 15.625 0
1.25 15.9375 0 1.5625 15.9375 0
1.5625 15.625 0 1.875 15.625 0
1.5625 15.9375 0 1.875 15.9375 0
1.875 15.625 0 2.1875 15.625 0
1.875 15.9375 0 2.1875 15.9375 0
2.1875 15.625 0 2.5 15.625 0
2.1875 15.9375 0 2.5 15.9375 0
2.5 15.625 0 2.8125 15.625 0
2.5 15.9375 0 2.8125 15.9375 0
2.8125 15.625 0 3.125 15.625 0
2.8125 15.9375 0 3.125 15.9375 0
3.125 15.625 0 3.4375 15.625 0
3.125 15.9375 0 3.4375 15.9375 0
3.4375 15.625 0 3.75 15.625 0
3.4375 15.9375 0 3.75 15.9375 0
3.75 15.625 0 4.0625 15.625 0
3.75 15.9375 0 4.0625 15.9375 0
4.0625 15.625 0 4.375 15.625 0
4.0625 15.9375 0 4.375 15.9375 0
4.375 15.625 0 4.6875 15.625 0
4.375 15.9375 0 4.6875 15.9375 0
4.6875 15.625 0 5 15.625 0
4.6875 15.9375 0 5 15.9375 0
5 15.625 0 5.3125 15.625 0
5 15.9375 0 5.3125 15.9375 0
5.3125 15.625 0 5.625 15.625 0
5.3125 15.9375 0 5.625 15.9375 0
5.625 15.625 0 5.9375 15.625 0
5.625 15.9375 0 5.9375 15.9375 0
5.9375 15.625 0 6.25 15.625 0
5.9375 15.9375 0 6.25 15.9375 0
6.25 15.625 0 6.5625 15.625 0
6.25 15.9375 0 6.5625 15.9375 0
6.5625 15.625 0 6.875 15.625 0
6.5625 15.9375 0 6.875 15.9375 0
6.875 15.625 0 7.1875 15.625 0
6.875 15.9375 0 7.1875 15.9375 0
7.1875 15.625 0 7.5 15.625 0
7.1875 15.9375 0 7.5 15.9375 0
7.5 15.625 0 7.8125 15.625 0
7.5 15.9375 0 7.8125 15.9375 0
7.8125 15.625 0 8.125 15.625 0
7.8125 15.9375 0 8.125 15.9375 0
8.125 15.625 0 8.4375 15.625 0
8.125 15.9375 0 8.4375 15.9375 0
8.4375 15.625 0 8.75 15.625 0
8.4375 15.9375 0 8.75 15.9375 0
8.75 15.625 0 9.0625 15.625 0
8.75 15.9375 0 9.0625 15.9375 0
9.0625 15.625 0 9.375 15.625 0
9.0625 15.9375 0 9.375 15.9375 0
9.375 15.625 0 9.6875 15.625 0
9.375 15.9375 0 9.6875 15.9375 0
9.6875 15.625 0 10 15.625 0
9.6875 15.9375 0 10 15.9375 0
0 15.9375 0 0.3125 15.9375 0
0 16.25 0 0.3125 16.25 0
0.3125 15.9375 0 0.625 15.9375 0
0.3125 16.25 0 0.625 16.25 0
0.625 15.9375 0 0.9375 15.9375 0
0.625 16.25 0 0.9375 16.25 0
0.9375 15.9375 0 1.25 15.9375 0
0.9375 16.25 0 1.25 16.25 0
1.25 15.9375 0 1.5625 15.9375 0
1.25 16.25 0 1.5625 16.25 0
1.5625 15.9375 0 1.875 15.9375 0
1.5625 16.25 0 1.875 16.25 0
1.875 15.9375 0 2.1875 15.9375 0
1.875 16.25 0 2.1875 16.25 0
2.1875 15.9375 0 2.5 15.9375 0
2.1875 16.25 0 2.5 16.25 0
2.5 15.9375 0 2.8125 15.9375 0
2.5 16.25 0 2.8125 16.25 0
2.8125 15.9375 0 3.125 15.9375 0
2.8125 16.25 0 3.125 16.25 0
3.125 15.9375 0 3.4375 15.9375 0
3.125 16.25 0 3.4375 16.25 0
3.4375 15.9375 0 3.75 15.9375 0
3.4375 16.25 0 3.75 16.25 0
3.75 15.9375 0 4.0625 15.9375 0
3.75 16.25 0 4.0625 16.25 0
4.0625 15.9375 0 4.375 15.9375 0
4.0625 16.25 0 4.375 16.25 0
4.375 15.9375 0 4.6875 15.9375 0
4.375 16.25 0 4.6875 16.25 0
4.6875 15.9375 0 5 15.9375 0
4.6875 16.25 0 5 16.25 0
5 15.9375 0 5.3125 15.9375 0
5 16.25 0 5.3125 16.25 0
5.3125 15.9375 0 5.625 15.9375 0
5.3125 16.25 0 5.625 16.25 0
5.625 15.9375 0 5.9375 15.9375 0
5.625 16.25 0 5.9375 16.25 0
5.9375 15.9375 0 6.25 15.9375 0
5.9375 16.25 0 6.25 16.25 0
6.25 15.9375 0 6.5625 15.9375 0
6.25 16.25 0 6.5625 16.25 0
6.5625 15.9375 0 6.875 15.9375 0
6.5625 16.25 0 6.875 16.25 0
6.875 15.9375 0 7.1875 15.9375 0
6.875 16.25 0 7.1875 16.25 0
7.1875 15.9375 0 7.5 15.9375 0
7.1875 16.25 0 7.5 16.25 0
7.5 15.9375 0 7.8125 15.9375 0
7.5 16.25 0 7.8125 16.25 0
7.8125 15.9375 0 8.125 15.9375 0
7.8125 16.25 0 8.125 16.25 0
8.125 15.9375 0 8.4375 15.9375 0
8.125 16.25 0 8.4375 16.25 0
8.4375 15.9375 0 8.75 15.9375 0
8.4375 16.25 0 8.75 16.25 0
8.75 15.9375 0 9.0625 15.9375 0
8.75 16.25 0 9.0625 16.25 0
9.0625 15.9375 0 9.375 15.9375 0
9.0625 16.25 0 9.375 16.25 0
9.375 15.9375 0 9.6875 15.9375 0
9.375 16.25 0 9.6875 16.25 0
9.6875 15.9375 0 10 15.9375 0
9.6875 16.25 0 10 16.25 0
0 16.25 0 0.3125 16.25 0
0 16.5625 0 0.3125 16.5625 0
0.3125 16.25 0 0.625 16.25 0
0.3125 16.5625 0 0.625 16.5625 0
0.625 16.25 0 0.9375 16.25 0
0.625 16.5625 0 0.9375 16.5625 0
0.9375 16.25 0 1.25 16.25 0
0.9375 16.5625 0 1.25 16.5625 0
1.25 16.25 0 1.5625 16.25 0
1.25 16.5625 0 1.5625 16.5625 0
1.5625 16.25 0 1.875 16.25 0
1.5625 16.5625 0 1.875 16.5625 0
1.875 16.25 0 2.1875 16.25 0
1.875 16.5625 0 2.1875 16.5625 0
2.1875 16.25 0 2.5 16.25 0
2.1875 16.5625 0 2.5 16.5625 0
2.5 16.25 0 2.8125 16.25 0
2.5 16.5625 0 2.8125 16.5625 0
2.8125 16.25 0 3.125 16.25 0
2.8125 16.5625 0 3.125 16.5625 0
3.125 16.25 0 3.4375 16.25 0
3.125 16.5625 0 3.4375 16.5625 0
3.4375 16.25 0 3.75 16.25 0
3.4375 16.5625 0 3.75 16.5625 0
3.75 16.25 0 4.0625 16.25 0
3.75 16.5625 0 4.0625 16.5625 0
4.0625 16.25 0 4.375 16.25 0
4.0625 16.5625 0 4.375 16.5625 0
4.375 16.25 0 4.6875 16.25 0
4.375 16.5625 0 4.6875 16.5625 0
4.6875 16.25 0 5 16.25 0
4.6875 16.5625 0 5 16.5625 0
5 16.25 0 5.3125 16.25 0
5 16.5625 0 5.3125 16.5625 0
5.3125 16.25 0 5.625 16.25 0
5.3125 16.5625 0 5.625 16.5625 0
5.625 16.25 0 5.9375 16.25 0
5.625 16.5625 0 5.9375 16.5625 0
5.9375 16.25 0 6.25 16.25 0
5.9375 16.5625 0 6.25 16.5625 0
6.25 16.25 0 6.5625 16.25 0
6.25 16.5625 0 6.5625 16.5625 0
6.5625 16.25 0 6.875 16.25 0
6.5625 16.5625 0 6.875 16.5625 0
6.875 16.25 0 7.1875 16.25 0
6.875 16.5625 0 7.1875 16.5625 0
7.1875 16.25 0 7.5 16.25 0
7.1875 16.5625 0 7.5 16.5625 0
7.5 16.25 0 7.8125 16.25 0
7.5 16.5625 0 7.8125 16.5625 0
7.8125 16.25 0 8.125 16.25 0
7.8125 16.5625 0 8.125 16.5625 0
8.125 16.25 0 8.4375 16.25 0
8.125 16.5625 0 8.4375 16.5625 0
8.4375 16.25 0 8.75 16.25 0
8.4375 16.5625 0 8.75 16.5625 0
8.75 16.25 0 9.0625 16.25 0
8.75 16.5625 0 9.0625 16.5625 0
9.0625 16.25 0 9.375 16.25 0
9.0625 16.5625 0 9.375 16.5625 0
9.375 16.25 0 9.6875 16.25 0
9.375 16.5625 0 9.6875 16.5625 0
9.6875 16.25 0 10 16.25 0
9.6875 16.5625 0 10 16.5625 0
0 16.5625 0 0.3125 16.5625 0
0 16.875 0 0.3125 16.875 0
0.3125 16.5625 0 0.625 16.5625 0
0.3125 16.875 0 0.625 16.875 0
0.625 16.5625 0 0.9375 16.5625 0
0.625 16.875 0 0.9375 16.875 0
0.9375 16.5625 0 1.25 16.5625 0
[...]
<PointData Scalars="g">
<DataArray Name="g" type="Float32" NumberOfComponents="1" format="ascii">
0 0 2.98563598 2.98277468 0 0
2.98277468 2.97418285 0 0 2.97418285 2.9598579
0 0 2.9598579 2.93986538 0 0
2.93986538 2.91443913 0 0 2.91443913 2.88410491
0 0 2.88410491 2.84979742 0 0
2.84979742 2.81292383 0 0 2.81292383 2.77532174
0 0 2.77532174 2.73908016 0 0
2.73908016 2.70624301 0 0 2.70624301 2.67847824
0 0 2.67847824 2.65683656 0 0
2.65683656 2.64170667 0 0 2.64170667 2.63299345
0 0 2.63299345 2.63043678 0 0
2.63043678 2.63391214 0 0 2.63391214 2.6435589
0 0 2.6435589 2.65967053 0 0
2.65967053 2.68240655 0 0 2.68240655 2.71147869
0 0 2.71147869 2.74597461 0 0
2.74597461 2.78441278 0 0 2.78441278 2.82501843
0 0 2.82501843 2.86614087 0 0
2.86614087 2.90674664 0 0 2.90674664 2.947069
0 0 2.947069 2.98991136 0 0
2.98991136 3.04495052 0 0 3.04495052 3.1437942
0 0 3.1437942 3.54101628 0 2.70672417
3.54101628 3.59837974 2.98563598 2.98277468 5.87932834 5.87362069
2.98277468 2.97418285 5.87362069 5.8564608 2.97418285 2.9598579
5.8564608 5.82777998 2.9598579 2.93986538 5.82777998 5.78760547
2.93986538 2.91443913 5.78760547 5.73627182 2.91443913 2.88410491
5.73627182 5.67469672 2.88410491 2.84979742 5.67469672 5.60466546
2.84979742 2.81292383 5.60466546 5.52901968 2.81292383 2.77532174
5.52901968 5.45161761 2.77532174 2.73908016 5.45161761 5.37696391
2.73908016 2.70624301 5.37696391 5.30952629 2.70624301 2.67847824
5.30952629 5.25292671 2.67847824 2.65683656 5.25292671 5.20932461
2.65683656 2.64170667 5.20932461 5.17928753 2.64170667 2.63299345
5.17928753 5.16224246 2.63299345 2.63043678 5.16224246 5.1573054
2.63043678 2.63391214 5.1573054 5.16407203 2.63391214 2.6435589
5.16407203 5.18295529 2.6435589 2.65967053 5.18295529 5.21489248
2.65967053 2.68240655 5.21489248 5.26058226 2.68240655 2.71147869
5.26058226 5.31965973 2.71147869 2.74597461 5.31965973 5.39023758
2.74597461 2.78441278 5.39023758 5.46903937 2.78441278 2.82501843
5.46903937 5.55206352 2.82501843 2.86614087 5.55206352 5.63552216
2.86614087 2.90674664 5.63552216 5.71680744 2.90674664 2.947069
5.71680744 5.79546486 2.947069 2.98991136 5.79546486 5.87465299
2.98991136 3.04495052 5.87465299 5.96418474 3.04495052 3.1437942
5.96418474 6.09409212 3.1437942 3.54101628 6.09409212 6.21314116
3.54101628 3.59837974 6.21314116 6.27903011 5.87932834 5.87362069
8.68674594 8.67824265 5.87362069 5.8564608 8.67824265 8.65262555
5.8564608 5.82777998 8.65262555 8.60963334 5.82777998 5.78760547
8.60963334 8.54903979 5.78760547 5.73627182 8.54903979 8.4709877
5.73627182 5.67469672 8.4709877 8.37646667 5.67469672 5.60466546
8.37646667 8.26787193 5.60466546 5.52901968 8.26787193 8.14947374
5.52901968 5.45161761 8.14947374 8.02751699 5.45161761 5.37696391
8.02751699 7.90967208 5.37696391 5.30952629 7.90967208 7.80376466
5.30952629 5.25292671 7.80376466 7.71611279 5.25292671 5.20932461
7.71611279 7.65015881 5.20932461 5.17928753 7.65015881 7.6061208
5.17928753 5.16224246 7.6061208 7.58194814 5.16224246 5.1573054
7.58194814 7.57517216 5.1573054 5.16407203 7.57517216 7.58469727
5.16407203 5.18295529 7.58469727 7.61156952 5.18295529 5.21489248
7.61156952 7.65830067 5.21489248 5.26058226 7.65830067 7.72712739
5.26058226 5.31965973 7.72712739 7.8181533 5.31965973 5.39023758
7.8181533 7.9283487 5.39023758 5.46903937 7.9283487 8.0518647
5.46903937 5.55206352 8.0518647 8.18142585 5.55206352 5.63552216
8.18142585 8.31011522 5.63552216 5.71680744 8.31011522 8.43289058
5.71680744 5.79546486 8.43289058 8.54754141 5.79546486 5.87465299
8.54754141 8.65513074 5.87465299 5.96418474 8.65513074 8.76000255
5.96418474 6.09409212 8.76000255 8.85797468 6.09409212 6.21314116
8.85797468 8.93470412 6.21314116 6.27903011 8.93470412 8.96316925
8.68674594 8.67824265 11.4134297 11.402257 8.67824265 8.65262555
11.402257 11.3685044 8.65262555 8.60963334 11.3685044 11.3115368
8.60963334 8.54903979 11.3115368 11.2305452 8.54903979 8.4709877
11.2305452 11.1249894 8.4709877 8.37646667 11.1249894 10.9953178
8.37646667 8.26787193 10.9953178 10.8439638 8.26787193 8.14947374
10.8439638 10.6764028 8.14947374 8.02751699 10.6764028 10.501763
8.02751699 7.90967208 10.501763 10.3322544 7.90967208 7.80376466
10.3322544 10.1810011 7.80376466 7.71611279 10.1810011 10.0586913
7.71611279 7.65015881 10.0586913 9.97054008 7.65015881 7.6061208
9.97054008 9.91529793 7.6061208 7.58194814 9.91529793 9.88719806
7.58194814 7.57517216 9.88719806 9.87999201 7.57517216 7.58469727
9.87999201 9.89095316 7.58469727 7.61156952 9.89095316 9.92258987
7.61156952 7.65830067 9.92258987 9.98112664 7.65830067 7.72712739
9.98112664 10.0725931 7.72712739 7.8181533 10.0725931 10.1987422
7.8181533 7.9283487 10.1987422 10.3549666 7.9283487 8.0518647
10.3549666 10.5311574 8.0518647 8.18142585 10.5311574 10.7147099
8.18142585 8.31011522 10.7147099 10.8939658 8.31011522 8.43289058
10.8939658 11.0605678 8.43289058 8.54754141 11.0605678 11.2101711
8.54754141 8.65513074 11.2101711 11.341677 8.65513074 8.76000255
11.341677 11.4543824 8.76000255 8.85797468 11.4543824 11.5449569
8.85797468 8.93470412 11.5449569 11.6053647 8.93470412 8.96316925
11.6053647 11.6269353 11.4134297 11.402257 14.0646326 14.0510455
11.402257 11.3685044 14.0510455 14.009861 11.3685044 11.3115368
14.009861 13.9398648 11.3115368 11.2305452 13.9398648 13.8392512
11.2305452 11.1249894 13.8392512 13.7060896 11.1249894 10.9953178
13.7060896 13.539248 10.9953178 10.8439638 13.539248 13.3399569
10.8439638 10.6764028 13.3399569 13.1140036 10.6764028 10.501763
13.1140036 12.8737037 10.501763 10.3322544 12.8737037 12.6381076
10.3322544 10.1810011 12.6381076 12.4295371 10.1810011 10.0586913
12.4295371 12.2669 10.0586913 9.97054008 12.2669 12.158547
9.97054008 9.91529793 12.158547 12.0995232 9.91529793 9.88719806
12.0995232 12.0753785 9.88719806 9.87999201 12.0753785 12.0711829
9.87999201 9.89095316 12.0711829 12.0804371 9.89095316 9.92258987
12.0804371 12.1090157 9.92258987 9.98112664 12.1090157 12.1716502
9.98112664 10.0725931 12.1716502 12.2831979 10.0725931 10.1987422
12.2831979 12.4494779 10.1987422 10.3549666 12.4494779 12.6631041
10.3549666 10.5311574 12.6631041 12.9059159 10.5311574 10.7147099
12.9059159 13.1559544 10.7147099 10.8939658 13.1559544 13.3943109
10.8939658 11.0605678 13.3943109 13.6087833 11.0605678 11.2101711
13.6087833 13.7937954 11.2101711 11.341677 13.7937954 13.948014
11.341677 11.4543824 13.948014 14.0714098 11.4543824 11.5449569
14.0714098 14.162925 11.5449569 11.6053647 14.162925 14.2199235
11.6053647 11.6269353 14.2199235 14.2393598 14.0646326 14.0510455
16.6450619 16.6294978 14.0510455 14.009861 16.6294978 16.5821505
14.009861 13.9398648 16.5821505 16.5010627 13.9398648 13.8392512
16.5010627 16.3830379 13.8392512 13.7060896 16.3830379 16.2239147
13.7060896 13.539248 16.2239147 16.0194441 13.539248 13.3399569
16.0194441 15.7673393 13.3399569 13.1140036 15.7673393 15.4709667
13.1140036 12.8737037 15.4709667 15.144964 12.8737037 12.6381076
15.144964 14.8181992 12.6381076 12.4295371 14.8181992 14.5304692
12.4295371 12.2669 14.5304692 14.3177055 12.2669 12.158547
14.3177055 14.1957403 12.158547 12.0995232 14.1957403 14.1510089
12.0995232 12.0753785 14.1510089 14.1495063 12.0753785 12.0711829
14.1495063 14.1563502 12.0711829 12.0804371 14.1563502 14.1566795
12.0804371 12.1090157 14.1566795 14.1637645 12.1090157 12.1716502
14.1637645 14.2119558 12.1716502 12.2831979 14.2119558 14.3359895
12.2831979 12.4494779 14.3359895 14.551079 12.4494779 12.6631041
14.551079 14.8431817 12.6631041 12.9059159 14.8431817 15.1773436
12.9059159 13.1559544 15.1773436 15.513941 13.1559544 13.3943109
15.513941 15.8233224 13.3943109 13.6087833 15.8233224 16.0902735
13.6087833 13.7937954 16.0902735 16.3108906 13.7937954 13.948014
16.3108906 16.4870168 13.948014 14.0714098 16.4870168 16.6218005
14.0714098 14.162925 16.6218005 16.7175365 14.162925 14.2199235
16.7175365 16.7750571 14.2199235 14.2393598 16.7750571 16.7942837
16.6450619 16.6294978 19.1585273 19.14164 16.6294978 16.5821505
19.14164 19.0900946 16.5821505 16.5010627 19.0900946 19.0011691
16.5010627 16.3830379 19.0011691 18.8701039 16.3830379 16.2239147
18.8701039 18.6898785 16.2239147 16.0194441 18.6898785 18.4512958
16.0194441 15.7673393 18.4512958 18.1448609 15.7673393 15.4709667
18.1448609 17.7659693 15.4709667 15.144964 17.7659693 17.3239676
15.144964 14.8181992 17.3239676 16.8618251 14.8181992 14.5304692
16.8618251 16.4500508 14.5304692 14.3177055 16.4500508 16.1684599
14.3177055 14.1957403 16.1684599 16.0489705 14.1957403 14.1510089
16.0489705 16.0618387 14.1510089 14.1495063 16.0618387 16.1255982
14.1495063 14.1563502 16.1255982 16.1622005 14.1563502 14.1566795
16.1622005 16.1368494 14.1566795 14.1637645 16.1368494 16.080667
14.1637645 14.2119558 16.080667 16.0698927 14.2119558 14.3359895
16.0698927 16.1885 14.3359895 14.551079 16.1885 16.4691935
14.551079 14.8431817 16.4691935 16.8830185 14.8431817 15.1773436
16.8830185 17.3533525 15.1773436 15.513941 17.3533525 17.8073115
15.513941 15.8233224 17.8073115 18.2010479 15.8233224 16.0902735
18.2010479 18.5219882 16.0902735 16.3108906 18.5219882 18.7750804
16.3108906 16.4870168 18.7750804 18.9692043 16.4870168 16.6218005
18.9692043 19.1129709 16.6218005 16.7175365 19.1129709 19.2123581
16.7175365 16.7750571 19.2123581 19.2708781 16.7750571 16.7942837
19.2708781 19.2902236 19.1585273 19.14164 21.6075391 21.5901867
19.14164 19.0900946 21.5901867 21.5370931 19.0900946 19.0011691
21.5370931 21.4449882 19.0011691 18.8701039 21.4449882 21.3078528
18.8701039 18.6898785 21.3078528 21.1159585 18.6898785 18.4512958
21.1159585 20.8544513 18.4512958 18.1448609 20.8544513 20.5015502
18.1448609 17.7659693 20.5015502 20.034902 17.7659693 17.3239676
20.034902 19.4462352 17.3239676 16.8618251 19.4462352 18.7557103
16.8618251 16.4500508 18.7557103 18.1320356 16.4500508 16.1684599
18.1320356 17.7230331 16.1684599 16.0489705 17.7230331 17.6567052
16.0489705 16.0618387 17.6567052 17.8243034 16.0618387 16.1255982
17.8243034 18.0499083 16.1255982 16.1622005 18.0499083 18.1567009
16.1622005 16.1368494 18.1567009 18.0730424 16.1368494 16.080667
18.0730424 17.8524218 16.080667 16.0698927 17.8524218 17.6877611
16.0698927 16.1885 17.6877611 17.7451132 16.1885 16.4691935
17.7451132 18.1440467 16.4691935 16.8830185 18.1440467 18.7696511
16.8830185 17.3533525 18.7696511 19.4633309 17.3533525 17.8073115
19.4633309 20.076073 17.8073115 18.2010479 20.076073 20.5571124
18.2010479 18.5219882 20.5571124 20.9253924 18.5219882 18.7750804
20.9253924 21.1998173 18.7750804 18.9692043 21.1998173 21.4030915
18.9692043 19.1129709 21.4030915 21.5499972 19.1129709 19.2123581
21.5499972 21.6497938 19.2123581 19.2708781 21.6497938 21.7078622
19.2708781 19.2902236 21.7078622 21.7269413 21.6075391 21.5901867
23.9929417 23.9761109 21.5901867 21.5370931 23.9761109 23.9245783
21.5370931 21.4449882 23.9245783 23.8350085 21.4449882 21.3078528
23.8350085 23.7010367 21.3078528 21.1159585 23.7010367 23.5117104
21.1159585 20.8544513 23.5117104 23.2483696 20.8544513 20.5015502
23.2483696 22.8790179 20.5015502 20.034902 22.8790179 22.3405662
20.034902 19.4462352 22.3405662 21.5840796 19.4462352 18.7557103
21.5840796 20.6098924 18.7557103 18.1320356 20.6098924 19.3446278
18.1320356 17.7230331 19.3446278 18.8497168 17.7230331 17.6567052
18.8497168 18.8407291 17.6567052 17.8243034 18.8407291 19.4436214
17.8243034 18.0499083 19.4436214 20.074087 18.0499083 18.1567009
20.074087 20.2579476 18.1567009 18.0730424 20.2579476 20.0810046
18.0730424 17.8524218 20.0810046 19.5635789 17.8524218 17.6877611
19.5635789 18.8336095 17.6877611 17.7451132 18.8336095 18.8753371
17.7451132 18.1440467 18.8753371 19.3995959 18.1440467 18.7696511
19.3995959 20.5289957 18.7696511 19.4633309 20.5289957 21.6227061
19.4633309 20.076073 21.6227061 22.37257 20.076073 20.5571124
22.37257 22.9381837 20.5571124 20.9253924 22.9381837 23.3213636
20.9253924 21.1998173 23.3213636 23.5955771 21.1998173 21.4030915
23.5955771 23.7938722 21.4030915 21.5499972 23.7938722 23.9352439
21.5499972 21.6497938 23.9352439 24.030474 21.6497938 21.7078622
24.030474 24.0855974 21.7078622 21.7269413 24.0855974 24.1036624
23.9929417 23.9761109 26.3136982 26.298366 23.9761109 23.9245783
26.298366 26.2515151 23.9245783 23.8350085 26.2515151 26.1703895
23.8350085 23.7010367 26.1703895 26.0496454 23.7010367 23.5117104
26.0496454 25.8797712 23.5117104 23.2483696 25.8797712 25.6436292
23.2483696 22.8790179 25.6436292 25.3078995 22.8790179 22.3405662
25.3078995 24.8078068 22.3405662 21.5840796 24.8078068 23.8700699
21.5840796 20.6098924 23.8700699 22.5144853 20.6098924 19.3446278
20.9384011 21.3071968 21.6915456 22.5144853 19.3446278 18.8497168
18.9664327 19.1694462 19.3770759 19.5935189 19.8227601 20.0685433
20.3343445 20.6233451 20.9383918 18.8497168 18.8407291 20.4661402
20.2050548 19.9718825 19.7635681 19.5767269 19.4076729 19.252446
19.1068403 18.9664327 18.8407291 19.4436214 21.5750355 21.0714398
20.7561132 20.4661416 19.4436214 20.074087 21.5750355 22.2021726
20.074087 20.2579476 22.2021726 22.7900379 20.2579476 20.0810046
22.7900379 22.3436583 20.0810046 19.5635789 22.3436583 21.3176804
19.5635789 18.8336095 20.2084434 20.4830567 20.7763808 21.3176804
18.8336095 18.8753371 18.9913746 19.1035237 19.2202438 19.3452101
19.481918 19.6336587 19.8034958 19.9942434 20.2084419 18.8753371
19.3995959 21.2723609 20.9057318 20.5701539 20.262203 19.9780554
19.7135353 19.4641466 19.2251055 18.9913746 19.3995959 20.5289957
22.8231337 22.0589648 21.6546039 21.2723694 20.5289957 21.6227061
22.8231337 23.791569 21.6227061 22.37257 23.791569 24.8633566
22.37257 22.9381837 24.8633566 25.3752598 22.9381837 23.3213636
25.3752598 25.7213734 23.3213636 23.5955771 25.7213734 25.9652237
23.5955771 23.7938722 25.9652237 26.1415139 23.7938722 23.9352439
26.1415139 26.267544 23.9352439 24.030474 26.267544 26.352696
24.030474 24.0855974 26.352696 26.4020888 24.0855974 24.1036624
26.4020888 26.418292 26.3136982 26.298366 28.5669303 28.5538957
26.298366 26.2515151 28.5538957 28.5142889 26.2515151 26.1703895
28.5142889 28.4465141 26.1703895 26.0496454 28.4465141 28.3475601
26.0496454 25.8797712 28.3475601 28.2122041 25.8797712 25.6436292
28.2122041 28.0310456 25.6436292 25.3078995 28.0310456 27.7860465
25.3078995 24.8078068 27.7860465 27.433745 24.8078068 23.8700699
27.433745 26.968061 23.8700699 22.5144853 24.1694101 24.7464231
25.3349613 26.968061 22.5144853 21.6915726 21.931207 22.1918949
22.4739911 22.7776376 23.1010014 23.4415939 23.7982106 24.1694005
21.5750355 23.744159 23.2678933 22.8278138 22.4266186 22.0664196
21.7502917 21.4798218 21.254044 21.0714562 21.5750355 22.2021726
25.685996 24.9580551 24.3417552 23.744171 22.2021726 22.7900379
25.685996 25.7769319 22.7900379 22.3436583 25.7769319 25.6055362
22.3436583 21.3176804 22.9945167 23.5552731 24.1345988 25.6055362
21.3176804 20.7763945 20.9596853 21.1702688 21.4089053 21.6760422
21.9701943 22.2889781 22.6309948 22.9944938 22.8231337 24.9560089
24.4682625 24.0120238 23.5898179 23.2036561 22.8567349 22.5509104
22.2854136 22.0589967 22.8231337 23.791569 27.136595 26.1989701
25.5713515 24.9560148 23.791569 24.8633566 27.136595 27.5102082
24.8633566 25.3752598 27.5102082 27.8667919 25.3752598 25.7213734
27.8667919 28.1152624 25.7213734 25.9652237 28.1152624 28.3003563
25.9652237 26.1415139 28.3003563 28.439502 26.1415139 26.267544
28.439502 28.5418237 26.267544 26.352696 28.5418237 28.6122573
26.352696 26.4020888 28.6122573 28.65357 26.4020888 26.418292
28.65357 28.6671927 28.5669303 28.5538957 30.7482556 30.7379981
28.5538957 28.5142889 30.7379981 30.7071446 28.5142889 28.4465141
30.7071446 30.6555198 28.4465141 28.3475601 30.6555198 30.5830805
28.3475601 28.2122041 30.5830805 30.4903873 28.2122041 28.0310456
30.4903873 30.3795444 28.0310456 27.7860465 30.3795444 30.2559143
27.7860465 27.433745 30.2559143 30.1358184 27.433745 26.968061
30.1358184 30.0453746 26.968061 25.334973 25.9769811 26.5973196
27.1985601 27.7836559 28.355892 28.9188555 29.4764044 30.0326361
30.0453746 25.685996 29.1173497 29.1375236 28.6180263 28.1001924
27.5826162 27.0640037 26.5431878 26.0191425 25.4909971 24.9580768
25.685996 25.7769319 29.1173497 29.0897294 25.7769319 25.6055362
29.0897294 29.0880062 25.6055362 24.1346162 24.7977979 25.4431746
26.0728883 26.6894404 27.2956334 27.8945436 28.4894932 29.0840212
29.0880062 27.136595 30.1693459 30.1371752 29.6560095 29.1751405
28.69265 28.2067519 27.7158102 27.2183559 26.7131035 26.1989847
27.136595 27.5102082 30.1693459 30.2371395 27.5102082 27.8667919
30.2371395 30.348639 27.8667919 28.1152624 30.348639 30.4701276
28.1152624 28.3003563 30.4701276 30.581359 28.3003563 28.439502
30.581359 30.6755195 28.439502 28.5418237 30.6755195 30.7497071
28.5418237 28.6122573 30.7497071 30.8028808 28.6122573 28.65357
30.8028808 30.8347794 28.65357 28.6671927 30.8347794 30.8454043
30.7482556 30.7379981 32.8523728 32.8449929 30.7379981 30.7071446
32.8449929 32.8231351 30.7071446 30.6555198 32.8231351 32.7878435
30.6555198 30.5830805 32.7878435 32.7416226 30.5830805 30.4903873
32.7416226 32.6900241 30.4903873 30.3795444 32.6900241 32.6450484
30.3795444 30.2559143 32.6450484 32.6327158 30.2559143 30.1358184
32.6327158 32.7103817 30.1358184 30.0453746 32.7103817 32.9613393
30.0453746 30.0326361 30.5497563 31.0675691 31.5896523 32.1193723
32.6598557 33.2139619 33.7842573 34.3729693 32.9613393 29.1173497
32.4112898 33.3418352 32.796332 32.2590636 31.7290175 31.2049519
30.6854396 30.1688847 29.6535398 29.1375236 29.1173497 29.0897294
32.4112898 32.2868619 29.0897294 29.0880062 32.2868619 32.452895
29.0880062 29.0840212 29.6714698 30.2595885 30.8522095 31.4529352
32.0651076 32.6917788 33.3356823 33.9991729 32.452895 30.1693459
33.0158103 33.8790992 33.390027 32.9098577 32.4374343 31.9713807
31.5101344 31.0519632 30.594983 30.1371752 30.1693459 30.2371395
33.0158103 32.8238871 30.2371395 30.348639 32.8238871 32.73287
30.348639 30.4701276 32.73287 32.7398562 30.4701276 30.581359
32.7398562 32.7829174 30.581359 30.6755195 32.7829174 32.8343617
30.6755195 30.7497071 32.8343617 32.8811599 30.7497071 30.8028808
32.8811599 32.9171835 30.8028808 30.8347794 32.9171835 32.9395969
30.8347794 30.8454043 32.9395969 32.9471805 32.8523728 32.8449929
34.8737437 34.869016 32.8449929 32.8231351 34.869016 34.8553083
32.8231351 32.7878435 34.8553083 34.8342893 32.7878435 32.7416226
34.8342893 34.809679 32.7416226 32.6900241 34.809679 34.7891886
32.6900241 32.6450484 34.7891886 34.788673 32.6450484 32.6327158
34.788673 34.8409712 32.6327158 32.7103817 34.8409712 35.0124066
32.7103817 32.9613393 35.0124066 35.5055446 32.9613393 34.372978
34.8296492 35.2721711 36.4794319 35.5055446 36.4794319 35.2721791
35.5074332 35.7396114 35.9681888 36.1926694 36.4114575 36.6230935
36.8273223 37.0238893 36.0714158 36.5699376 36.3735897 36.1541242
35.9110719 35.6441892 35.355039 35.045891 34.717931 34.3726073
32.4112898 35.4903089 36.0714158 34.3725931 33.8673909 33.3418526
32.4112898 32.2868619 35.4903089 35.0009093 32.2868619 32.452895
35.0009093 35.351438 32.452895 33.9991872 34.5064597 34.9955101
36.3414901 35.351438 36.3414901 34.9955338 35.2570727 35.5149337
35.7685131 36.0172521 36.2593791 36.4932824 36.718689 36.9353409
36.3310627 36.7943965 36.6155961 36.416286 36.1960685 35.9547364
35.6937081 35.4150277 35.1197536 34.8091636 33.0158103 35.7285167
36.3310627 34.8091587 34.3522686 33.8791098 33.0158103 32.8238871
35.7285167 35.1228702 32.8238871 32.73287 35.1228702 34.9429363
32.73287 32.7398562 34.9429363 34.8845354 32.7398562 32.7829174
34.8845354 34.8824963 32.7829174 32.8343617 34.8824963 34.9021147
32.8343617 32.8811599 34.9021147 34.926651 32.8811599 32.9171835
34.926651 34.947892 32.9171835 32.9395969 34.947892 34.9618325
32.9395969 32.9471805 34.9618325 34.9666535 34.8737437 34.869016
36.8071846 36.8047029 34.869016 34.8553083 36.8047029 36.7977192
34.8553083 34.8342893 36.7977192 36.7877984 34.8342893 34.809679
36.7877984 36.7782395 34.809679 34.7891886 36.7782395 36.775457
34.7891886 34.788673 36.775457 36.7917963 34.788673 34.8409712
36.7917963 36.8512136 34.8409712 35.0124066 36.8512136 37.0025657