<VTKFile type="UnstructuredGrid" version="1.0" header_type="UInt32">
<UnstructuredGrid>
<Piece NumberOfPoints="7911" NumberOfCells="4027">
<Points>
<DataArray type="Float32" NumberOfComponents="3" format="ascii">
2.27048945 2.6329296 0 2.28611445 2.6329296 0
2.27048945 2.6485546 0 2.28611445 2.6485546 0
2.28611445 2.6329296 0 2.30173945 2.6329296 0
2.28611445 2.6485546 0 2.30173945 2.6485546 0
2.30173945 2.6329296 0 2.31736445 2.6329296 0
2.30173945 2.6485546 0 2.31736445 2.6485546 0
2.31736445 2.6329296 0 2.33298945 2.6329296 0
2.31736445 2.6485546 0 2.33298945 2.6485546 0
2.33298945 2.6329296 0 2.34861445 2.6329296 0
2.33298945 2.6485546 0 2.34861445 2.6485546 0
2.34861445 2.6329296 0 2.36423945 2.6329296 0
2.34861445 2.6485546 0 2.36423945 2.6485546 0
2.36423945 2.6329296 0 2.37986445 2.6329296 0
2.36423945 2.6485546 0 2.37986445 2.6485546 0
2.37986445 2.6329296 0 2.39548945 2.6329296 0
2.37986445 2.6485546 0 2.39548945 2.6485546 0
2.39548945 2.6329296 0 2.41111445 2.6329296 0
2.39548945 2.6485546 0 2.41111445 2.6485546 0
2.41111445 2.6329296 0 2.42673945 2.6329296 0
2.41111445 2.6485546 0 2.42673945 2.6485546 0
2.42673945 2.6329296 0 2.44236445 2.6329296 0
2.42673945 2.6485546 0 2.44236445 2.6485546 0
2.44236445 2.6329296 0 2.45798945 2.6329296 0
2.44236445 2.6485546 0 2.45798945 2.6485546 0
2.45798945 2.6329296 0 2.47361445 2.6329296 0
2.45798945 2.6485546 0 2.47361445 2.6485546 0
2.47361445 2.6329296 0 2.48923945 2.6329296 0
2.47361445 2.6485546 0 2.48923945 2.6485546 0
2.48923945 2.6329296 0 2.50486445 2.6329296 0
2.48923945 2.6485546 0 2.50486445 2.6485546 0
2.50486445 2.6329296 0 2.52048945 2.6329296 0
2.50486445 2.6485546 0 2.52048945 2.6485546 0
2.52048945 2.6329296 0 2.53611445 2.6329296 0
2.52048945 2.6485546 0 2.53611445 2.6485546 0
2.53611445 2.6329296 0 2.55173945 2.6329296 0
2.53611445 2.6485546 0 2.55173945 2.6485546 0
2.55173945 2.6329296 0 2.56736445 2.6329296 0
2.55173945 2.6485546 0 2.56736445 2.6485546 0
2.56736445 2.6329296 0 2.58298945 2.6329296 0
2.56736445 2.6485546 0 2.58298945 2.6485546 0
2.58298945 2.6329296 0 2.59861445 2.6329296 0
2.58298945 2.6485546 0 2.59861445 2.6485546 0
2.59861445 2.6329296 0 2.61423945 2.6329296 0
2.59861445 2.6485546 0 2.61423945 2.6485546 0
2.28611445 2.6485546 0 2.30173945 2.6485546 0
2.28611445 2.6641796 0 2.30173945 2.6641796 0
2.30173945 2.6485546 0 2.31736445 2.6485546 0
2.30173945 2.6641796 0 2.31736445 2.6641796 0
2.31736445 2.6485546 0 2.33298945 2.6485546 0
2.31736445 2.6641796 0 2.33298945 2.6641796 0
2.33298945 2.6485546 0 2.34861445 2.6485546 0
2.33298945 2.6641796 0 2.34861445 2.6641796 0
2.34861445 2.6485546 0 2.36423945 2.6485546 0
2.34861445 2.6641796 0 2.36423945 2.6641796 0
2.36423945 2.6485546 0 2.37986445 2.6485546 0
2.36423945 2.6641796 0 2.37986445 2.6641796 0
2.37986445 2.6485546 0 2.39548945 2.6485546 0
2.37986445 2.6641796 0 2.39548945 2.6641796 0
2.39548945 2.6485546 0 2.41111445 2.6485546 0
2.39548945 2.6641796 0 2.41111445 2.6641796 0
2.41111445 2.6485546 0 2.42673945 2.6485546 0
2.41111445 2.6641796 0 2.42673945 2.6641796 0
2.42673945 2.6485546 0 2.44236445 2.6485546 0
2.42673945 2.6641796 0 2.44236445 2.6641796 0
2.44236445 2.6485546 0 2.45798945 2.6485546 0
2.44236445 2.6641796 0 2.45798945 2.6641796 0
2.45798945 2.6485546 0 2.47361445 2.6485546 0
2.45798945 2.6641796 0 2.47361445 2.6641796 0
2.47361445 2.6485546 0 2.48923945 2.6485546 0
2.47361445 2.6641796 0 2.48923945 2.6641796 0
2.48923945 2.6485546 0 2.50486445 2.6485546 0
2.48923945 2.6641796 0 2.50486445 2.6641796 0
2.50486445 2.6485546 0 2.52048945 2.6485546 0
2.50486445 2.6641796 0 2.52048945 2.6641796 0
2.52048945 2.6485546 0 2.53611445 2.6485546 0
2.52048945 2.6641796 0 2.53611445 2.6641796 0
2.53611445 2.6485546 0 2.55173945 2.6485546 0
2.53611445 2.6641796 0 2.55173945 2.6641796 0
2.55173945 2.6485546 0 2.56736445 2.6485546 0
2.55173945 2.6641796 0 2.56736445 2.6641796 0
2.56736445 2.6485546 0 2.58298945 2.6485546 0
2.56736445 2.6641796 0 2.58298945 2.6641796 0
2.58298945 2.6485546 0 2.59861445 2.6485546 0
2.58298945 2.6641796 0 2.59861445 2.6641796 0
2.59861445 2.6485546 0 2.61423945 2.6485546 0
2.59861445 2.6641796 0 2.61423945 2.6641796 0
2.30173945 2.6641796 0 2.31736445 2.6641796 0
2.30173945 2.6798046 0 2.31736445 2.6798046 0
2.31736445 2.6641796 0 2.33298945 2.6641796 0
2.31736445 2.6798046 0 2.33298945 2.6798046 0
2.33298945 2.6641796 0 2.34861445 2.6641796 0
2.33298945 2.6798046 0 2.34861445 2.6798046 0
2.34861445 2.6641796 0 2.36423945 2.6641796 0
2.34861445 2.6798046 0 2.36423945 2.6798046 0
2.36423945 2.6641796 0 2.37986445 2.6641796 0
2.36423945 2.6798046 0 2.37986445 2.6798046 0
2.37986445 2.6641796 0 2.39548945 2.6641796 0
2.37986445 2.6798046 0 2.39548945 2.6798046 0
2.39548945 2.6641796 0 2.41111445 2.6641796 0
2.39548945 2.6798046 0 2.41111445 2.6798046 0
2.41111445 2.6641796 0 2.42673945 2.6641796 0
2.41111445 2.6798046 0 2.42673945 2.6798046 0
2.42673945 2.6641796 0 2.44236445 2.6641796 0
2.42673945 2.6798046 0 2.44236445 2.6798046 0
2.44236445 2.6641796 0 2.45798945 2.6641796 0
2.44236445 2.6798046 0 2.45798945 2.6798046 0
2.45798945 2.6641796 0 2.47361445 2.6641796 0
2.45798945 2.6798046 0 2.47361445 2.6798046 0
2.47361445 2.6641796 0 2.48923945 2.6641796 0
2.47361445 2.6798046 0 2.48923945 2.6798046 0
2.48923945 2.6641796 0 2.50486445 2.6641796 0
2.48923945 2.6798046 0 2.50486445 2.6798046 0
2.50486445 2.6641796 0 2.52048945 2.6641796 0
2.50486445 2.6798046 0 2.52048945 2.6798046 0
2.52048945 2.6641796 0 2.53611445 2.6641796 0
2.52048945 2.6798046 0 2.53611445 2.6798046 0
2.53611445 2.6641796 0 2.55173945 2.6641796 0
2.53611445 2.6798046 0 2.55173945 2.6798046 0
2.55173945 2.6641796 0 2.56736445 2.6641796 0
2.55173945 2.6798046 0 2.56736445 2.6798046 0
2.56736445 2.6641796 0 2.58298945 2.6641796 0
2.56736445 2.6798046 0 2.58298945 2.6798046 0
2.58298945 2.6641796 0 2.59861445 2.6641796 0
2.58298945 2.6798046 0 2.59861445 2.6798046 0
2.59861445 2.6641796 0 2.61423945 2.6641796 0
2.59861445 2.6798046 0 2.61423945 2.6798046 0
2.30173945 2.6798046 0 2.31736445 2.6798046 0
2.30173945 2.6954296 0 2.31736445 2.6954296 0
2.31736445 2.6798046 0 2.33298945 2.6798046 0
2.31736445 2.6954296 0 2.33298945 2.6954296 0
2.33298945 2.6798046 0 2.34861445 2.6798046 0
2.33298945 2.6954296 0 2.34861445 2.6954296 0
2.34861445 2.6798046 0 2.36423945 2.6798046 0
2.34861445 2.6954296 0 2.36423945 2.6954296 0
2.36423945 2.6798046 0 2.37986445 2.6798046 0
2.36423945 2.6954296 0 2.37986445 2.6954296 0
2.37986445 2.6798046 0 2.39548945 2.6798046 0
2.37986445 2.6954296 0 2.39548945 2.6954296 0
2.39548945 2.6798046 0 2.41111445 2.6798046 0
2.39548945 2.6954296 0 2.41111445 2.6954296 0
2.41111445 2.6798046 0 2.42673945 2.6798046 0
2.41111445 2.6954296 0 2.42673945 2.6954296 0
2.42673945 2.6798046 0 2.44236445 2.6798046 0
2.42673945 2.6954296 0 2.44236445 2.6954296 0
2.44236445 2.6798046 0 2.45798945 2.6798046 0
2.44236445 2.6954296 0 2.45798945 2.6954296 0
2.45798945 2.6798046 0 2.47361445 2.6798046 0
2.45798945 2.6954296 0 2.47361445 2.6954296 0
2.47361445 2.6798046 0 2.48923945 2.6798046 0
2.47361445 2.6954296 0 2.48923945 2.6954296 0
2.48923945 2.6798046 0 2.50486445 2.6798046 0
2.48923945 2.6954296 0 2.50486445 2.6954296 0
2.50486445 2.6798046 0 2.52048945 2.6798046 0
2.50486445 2.6954296 0 2.52048945 2.6954296 0
2.52048945 2.6798046 0 2.53611445 2.6798046 0
2.52048945 2.6954296 0 2.53611445 2.6954296 0
2.53611445 2.6798046 0 2.55173945 2.6798046 0
2.53611445 2.6954296 0 2.55173945 2.6954296 0
2.55173945 2.6798046 0 2.56736445 2.6798046 0
2.55173945 2.6954296 0 2.56736445 2.6954296 0
2.56736445 2.6798046 0 2.58298945 2.6798046 0
2.56736445 2.6954296 0 2.58298945 2.6954296 0
2.58298945 2.6798046 0 2.59861445 2.6798046 0
2.58298945 2.6954296 0 2.59861445 2.6954296 0
2.59861445 2.6798046 0 2.61423945 2.6798046 0
2.59861445 2.6954296 0 2.61423945 2.6954296 0
2.31736445 2.6954296 0 2.33298945 2.6954296 0
2.31736445 2.7110546 0 2.33298945 2.7110546 0
2.33298945 2.6954296 0 2.34861445 2.6954296 0
2.33298945 2.7110546 0 2.34861445 2.7110546 0
2.34861445 2.6954296 0 2.36423945 2.6954296 0
2.34861445 2.7110546 0 2.36423945 2.7110546 0
2.36423945 2.6954296 0 2.37986445 2.6954296 0
2.36423945 2.7110546 0 2.37986445 2.7110546 0
2.37986445 2.6954296 0 2.39548945 2.6954296 0
2.37986445 2.7110546 0 2.39548945 2.7110546 0
2.39548945 2.6954296 0 2.41111445 2.6954296 0
2.39548945 2.7110546 0 2.41111445 2.7110546 0
2.41111445 2.6954296 0 2.42673945 2.6954296 0
2.41111445 2.7110546 0 2.42673945 2.7110546 0
2.42673945 2.6954296 0 2.44236445 2.6954296 0
2.42673945 2.7110546 0 2.44236445 2.7110546 0
2.44236445 2.6954296 0 2.45798945 2.6954296 0
2.44236445 2.7110546 0 2.45798945 2.7110546 0
2.45798945 2.6954296 0 2.47361445 2.6954296 0
2.45798945 2.7110546 0 2.47361445 2.7110546 0
2.47361445 2.6954296 0 2.48923945 2.6954296 0
2.47361445 2.7110546 0 2.48923945 2.7110546 0
2.48923945 2.6954296 0 2.50486445 2.6954296 0
2.48923945 2.7110546 0 2.50486445 2.7110546 0
2.50486445 2.6954296 0 2.52048945 2.6954296 0
2.50486445 2.7110546 0 2.52048945 2.7110546 0
2.52048945 2.6954296 0 2.53611445 2.6954296 0
2.52048945 2.7110546 0 2.53611445 2.7110546 0
2.53611445 2.6954296 0 2.55173945 2.6954296 0
2.53611445 2.7110546 0 2.55173945 2.7110546 0
2.55173945 2.6954296 0 2.56736445 2.6954296 0
2.55173945 2.7110546 0 2.56736445 2.7110546 0
2.56736445 2.6954296 0 2.58298945 2.6954296 0
2.56736445 2.7110546 0 2.58298945 2.7110546 0
2.58298945 2.6954296 0 2.59861445 2.6954296 0
2.58298945 2.7110546 0 2.59861445 2.7110546 0
2.59861445 2.6954296 0 2.61423945 2.6954296 0
2.59861445 2.7110546 0 2.61423945 2.7110546 0
2.33298945 2.7110546 0 2.34861445 2.7110546 0
2.33298945 2.7266796 0 2.34861445 2.7266796 0
2.34861445 2.7110546 0 2.36423945 2.7110546 0
2.34861445 2.7266796 0 2.36423945 2.7266796 0
2.36423945 2.7110546 0 2.37986445 2.7110546 0
2.36423945 2.7266796 0 2.37986445 2.7266796 0
2.37986445 2.7110546 0 2.39548945 2.7110546 0
2.37986445 2.7266796 0 2.39548945 2.7266796 0
[...]
<PointData Scalars="g">
<DataArray Name="g" type="Float32" NumberOfComponents="1" format="ascii">
0 0 0 0 0 0
0 0 0 0 0 0
0 0 0 0 0 0
0 0 0 0 0 0
0 0 0 0 0 0
0 0 0 0 0 0
0 0 0 0 0 0
0 0 0 0 0 0
0 0 0 0 0 0
0 0 0 0 0 0
0 0 0 0 0 0
0 0 0 0 0 0
0 0 0 0 0 0
0 0 0 0 0 0
0 0 0 0.0113636711 0 0
0.00205379141 0.0078489547 0 0 0.0078489547 0.0118002004
0 0 0.0118002004 0.0138373537 0 0
0.0138373537 0.0158787002 0 0 0.0158787002 0.017709642
0 0 0.017709642 0.0192866627 0 0
0.0192866627 0.0206286442 0 0 0.0206286442 0.0217778888
0 0 0.0217778888 0.022772373 0 0
0.022772373 0.0236392334 0 0 0.0236392334 0.0243985721
0 0 0.0243985721 0.0250652889 0 0
0.0250652889 0.0256505722 0 0 0.0256505722 0.026163363
0 0 0.026163363 0.026612026 0 0
0.026612026 0.0270069498 0 0 0.0270069498 0.0273662813
0 0 0.0273662813 0.0277345591 0 0
0.0277345591 0.0282466229 0 0 0.0282466229 0.0299722736
0 0.0113636711 0.0299722736 0.0302323993 0.0078489547 0.0118002004
0.02145248 0.0229910757 0.0118002004 0.0138373537 0.0229910757 0.0275393171
0.0138373537 0.0158787002 0.0275393171 0.0317571146 0.0158787002 0.017709642
0.0317571146 0.0354537526 0.017709642 0.0192866627 0.0354537526 0.0385684842
0.0192866627 0.0206286442 0.0385684842 0.0412003568 0.0206286442 0.0217778888
0.0412003568 0.0434633392 0.0217778888 0.022772373 0.0434633392 0.045425975
0.022772373 0.0236392334 0.045425975 0.0471401256 0.0236392334 0.0243985721
0.0471401256 0.0486443995 0.0243985721 0.0250652889 0.0486443995 0.0499671079
0.0250652889 0.0256505722 0.0499671079 0.0511292374 0.0256505722 0.026163363
0.0511292374 0.0521471586 0.026163363 0.026612026 0.0521471586 0.0530354876
0.026612026 0.0270069498 0.0530354876 0.0538108272 0.0270069498 0.0273662813
0.0538108272 0.0544985544 0.0273662813 0.0277345591 0.0544985544 0.0551469376
0.0277345591 0.0282466229 0.0551469376 0.0558856551 0.0282466229 0.0299722736
0.0558856551 0.0565011354 0.0299722736 0.0302323993 0.0565011354 0.0568162834
0.02145248 0.0229910757 0.025450844 0.0340025337 0.0229910757 0.0275393171
0.0340025337 0.0412645 0.0275393171 0.0317571146 0.0412645 0.0480506367
0.0317571146 0.0354537526 0.0480506367 0.0535905922 0.0354537526 0.0385684842
0.0535905922 0.0580557664 0.0385684842 0.0412003568 0.0580557664 0.061890035
0.0412003568 0.0434633392 0.061890035 0.0651996122 0.0434633392 0.045425975
0.0651996122 0.0680794067 0.045425975 0.0471401256 0.0680794067 0.0706033992
0.0471401256 0.0486443995 0.0706033992 0.0728252243 0.0486443995 0.0499671079
0.0728252243 0.0747838228 0.0499671079 0.0511292374 0.0747838228 0.076507324
0.0511292374 0.0521471586 0.076507324 0.07801684 0.0521471586 0.0530354876
0.07801684 0.0793299969 0.0530354876 0.0538108272 0.0793299969 0.0804643175
0.0538108272 0.0544985544 0.0804643175 0.0814405826 0.0544985544 0.0551469376
0.0814405826 0.0822855577 0.0551469376 0.0558856551 0.0822855577 0.0829852662
0.0558856551 0.0565011354 0.0829852662 0.0834804664 0.0565011354 0.0568162834
0.0834804664 0.0836576949 0.0340025337 0.0412645 0.0431979635 0.0558941093
0.0412645 0.0480506367 0.0558941093 0.0659508274 0.0480506367 0.0535905922
0.0659508274 0.0722224588 0.0535905922 0.0580557664 0.0722224588 0.0779332748
0.0580557664 0.061890035 0.0779332748 0.0828547546 0.061890035 0.0651996122
0.0828547546 0.08711227 0.0651996122 0.0680794067 0.08711227 0.0908383387
0.0680794067 0.0706033992 0.0908383387 0.0941197717 0.0706033992 0.0728252243
0.0941197717 0.0970215304 0.0728252243 0.0747838228 0.0970215304 0.0995892155
0.0747838228 0.076507324 0.0995892155 0.101854121 0.076507324 0.07801684
0.101854121 0.103838667 0.07801684 0.0793299969 0.103838667 0.105560306
0.0793299969 0.0804643175 0.105560306 0.10703395 0.0804643175 0.0814405826
0.10703395 0.108272414 0.0814405826 0.0822855577 0.108272414 0.109279681
0.0822855577 0.0829852662 0.109279681 0.110042949 0.0829852662 0.0834804664
0.110042949 0.110527325 0.0834804664 0.0836576949 0.110527325 0.110695
0.0558941093 0.0659508274 0.0807867567 0.0835544816 0.0659508274 0.0722224588
0.0835544816 0.0915106622 0.0722224588 0.0779332748 0.0915106622 0.0984010071
0.0779332748 0.0828547546 0.0984010071 0.1042085 0.0828547546 0.08711227
0.1042085 0.109305149 0.08711227 0.0908383387 0.109305149 0.113789942
0.0908383387 0.0941197717 0.113789942 0.117764737 0.0941197717 0.0970215304
0.117764737 0.121303173 0.0970215304 0.0995892155 0.121303173 0.124450478
0.0995892155 0.101854121 0.124450478 0.12723563 0.101854121 0.103838667
0.12723563 0.129678572 0.103838667 0.105560306 0.129678572 0.131794121
0.105560306 0.10703395 0.131794121 0.133593559 0.10703395 0.108272414
0.133593559 0.135083882 0.108272414 0.109279681 0.135083882 0.136265361
0.109279681 0.110042949 0.136265361 0.137129011 0.110042949 0.110527325
0.137129011 0.137658506 0.110527325 0.110695 0.137658506 0.137837287
0.0807867567 0.0835544816 0.0874645295 0.101596187 0.0835544816 0.0915106622
0.101596187 0.1122779 0.0915106622 0.0984010071 0.1122779 0.119416739
0.0984010071 0.1042085 0.119416739 0.126051345 0.1042085 0.109305149
0.126051345 0.131861041 0.109305149 0.113789942 0.131861041 0.136992578
0.113789942 0.117764737 0.136992578 0.141593227 0.117764737 0.121303173
0.141593227 0.145726918 0.121303173 0.124450478 0.145726918 0.149427082
0.124450478 0.12723563 0.149427082 0.152713729 0.12723563 0.129678572
0.152713729 0.155600752 0.129678572 0.131794121 0.155600752 0.158098825
0.131794121 0.133593559 0.158098825 0.16021592 0.133593559 0.135083882
0.16021592 0.161956633 0.135083882 0.136265361 0.161956633 0.163321112
0.136265361 0.137129011 0.163321112 0.164304786 0.137129011 0.137658506
0.164304786 0.164899942 0.137658506 0.137837287 0.164899942 0.165099324
0.101596187 0.1122779 0.129410271 0.132460607 0.1122779 0.119416739
0.132460607 0.14114082 0.119416739 0.126051345 0.14114082 0.148550652
0.126051345 0.131861041 0.148550652 0.154794431 0.131861041 0.136992578
0.154794431 0.160463307 0.136992578 0.141593227 0.160463307 0.165636365
0.141593227 0.145726918 0.165636365 0.170336379 0.145726918 0.149427082
0.170336379 0.174571478 0.149427082 0.152713729 0.174571478 0.178346452
0.152713729 0.155600752 0.178346452 0.181666968 0.155600752 0.158098825
0.181666968 0.184539298 0.158098825 0.16021592 0.184539298 0.186968987
0.16021592 0.161956633 0.186968987 0.188959635 0.161956633 0.163321112
0.188959635 0.190512186 0.163321112 0.164304786 0.190512186 0.19162498
0.164304786 0.164899942 0.19162498 0.192294769 0.164899942 0.165099324
0.192294769 0.192518454 0.129410271 0.132460607 0.136985771 0.153245389
0.132460607 0.14114082 0.153245389 0.164879354 0.14114082 0.148550652
0.164879354 0.17151215 0.148550652 0.154794431 0.17151215 0.178016914
0.154794431 0.160463307 0.178016914 0.184175043 0.160463307 0.165636365
0.184175043 0.189904434 0.165636365 0.170336379 0.189904434 0.19516661
0.170336379 0.174571478 0.19516661 0.1999325 0.174571478 0.178346452
0.1999325 0.204189731 0.178346452 0.181666968 0.204189731 0.207936953
0.181666968 0.184539298 0.207936953 0.211177578 0.184539298 0.186968987
0.211177578 0.213915982 0.186968987 0.188959635 0.213915982 0.216155602
0.188959635 0.190512186 0.216155602 0.217898236 0.190512186 0.19162498
0.217898236 0.219144084 0.19162498 0.192294769 0.219144084 0.219892302
0.192294769 0.192518454 0.219892302 0.220141857 0.153245389 0.164879354
0.188792664 0.18814275 0.164879354 0.17151215 0.18814275 0.194457378
0.17151215 0.178016914 0.194457378 0.201382475 0.178016914 0.184175043
0.201382475 0.208067453 0.184175043 0.189904434 0.208067453 0.214402545
0.189904434 0.19516661 0.214402545 0.220255345 0.19516661 0.1999325
0.220255345 0.225561412 0.1999325 0.204189731 0.225561412 0.230300171
0.204189731 0.207936953 0.230300171 0.234469491 0.207936953 0.211177578
0.234469491 0.238073517 0.211177578 0.213915982 0.238073517 0.241117005
0.213915982 0.216155602 0.241117005 0.243603814 0.216155602 0.217898236
0.243603814 0.245536544 0.217898236 0.219144084 0.245536544 0.246916623
0.219144084 0.219892302 0.246916623 0.247744612 0.219892302 0.220141857
0.247744612 0.248020613 0.188792664 0.2051952 0.205164865 0.198906131
0.195744813 0.188792664 0.18814275 0.2051952 0.208989505 0.18814275
0.194457378 0.208989505 0.217337937 0.194457378 0.201382475 0.217337937
0.224665521 0.201382475 0.208067453 0.224665521 0.232094984 0.208067453
0.214402545 0.232094984 0.239165286 0.214402545 0.220255345 0.239165286
0.245658784 0.220255345 0.225561412 0.245658784 0.251518764 0.225561412
0.230300171 0.251518764 0.256736972 0.230300171 0.234469491 0.256736972
0.261323121 0.234469491 0.238073517 0.261323121 0.265285465 0.238073517
0.241117005 0.265285465 0.268630114 0.241117005 0.243603814 0.268630114
0.271361549 0.243603814 0.245536544 0.271361549 0.27348306 0.245536544
0.246916623 0.27348306 0.274996964 0.246916623 0.247744612 0.274996964
0.275904761 0.247744612 0.248020613 0.275904761 0.276207273 0.2051952
0.208231832 0.206636265 0.205165076 0.2051952 0.208989505 0.233432122
0.228792583 0.218092902 0.208231951 0.208989505 0.217337937 0.233432122
0.239197627 0.217337937 0.224665521 0.239197627 0.247703698 0.224665521
0.232094984 0.247703698 0.256350189 0.232094984 0.239165286 0.256350189
0.264290286 0.239165286 0.245658784 0.264290286 0.271470277 0.245658784
0.251518764 0.271470277 0.277873935 0.251518764 0.256736972 0.277873935
0.283560797 0.256736972 0.261323121 0.283560797 0.288555662 0.261323121
0.265285465 0.288555662 0.292870472 0.265285465 0.268630114 0.292870472
0.296511918 0.268630114 0.271361549 0.296511918 0.299484749 0.271361549
0.27348306 0.299484749 0.301792768 0.27348306 0.274996964 0.301792768
0.303439047 0.274996964 0.275904761 0.303439047 0.304425874 0.275904761
0.276207273 0.304425874 0.304754657 0.233432122 0.250490184 0.250421856
0.240174843 0.228792624 0.233432122 0.239197627 0.250490184 0.259139791
0.239197627 0.247703698 0.259139791 0.271089838 0.247703698 0.256350189
0.271089838 0.281021274 0.256350189 0.264290286 0.281021274 0.290038206
0.264290286 0.271470277 0.290038206 0.297790863 0.271470277 0.277873935
0.297790863 0.304693673 0.277873935 0.283560797 0.304693673 0.310828927
0.283560797 0.288555662 0.310828927 0.316222899 0.288555662 0.292870472
0.316222899 0.320884224 0.292870472 0.296511918 0.320884224 0.324817953
0.296511918 0.299484749 0.324817953 0.328028395 0.299484749 0.301792768
0.328028395 0.330519812 0.301792768 0.303439047 0.330519812 0.332296145
0.303439047 0.304425874 0.332296145 0.333360573 0.304425874 0.304754657
0.333360573 0.333715147 0.250490184 0.251088753 0.250753431 0.250422123
0.250490184 0.259139791 0.283135499 0.27744256 0.263995368 0.251088984
0.259139791 0.271089838 0.283135499 0.293993199 0.271089838 0.281021274
0.293993199 0.307445008 0.281021274 0.290038206 0.307445008 0.316527343
0.290038206 0.297790863 0.316527343 0.324677986 0.297790863 0.304693673
0.324677986 0.332022776 0.304693673 0.310828927 0.332022776 0.338591403
0.310828927 0.316222899 0.338591403 0.344377848 0.316222899 0.320884224
0.344377848 0.349381433 0.320884224 0.324817953 0.349381433 0.353603185
0.324817953 0.328028395 0.353603185 0.357046823 0.328028395 0.330519812
0.357046823 0.359717529 0.330519812 0.332296145 0.359717529 0.361620615
0.332296145 0.333360573 0.361620615 0.362760522 0.333360573 0.333715147
0.362760522 0.363140156 0.283135499 0.313464381 0.313543783 0.313623183
0.292596401 0.277442615 0.283135499 0.293993199 0.327731794 0.313707721
0.313586238 0.31346478 0.293993199 0.307445008 0.327731794 0.334782929
0.307445008 0.316527343 0.334782929 0.343643062 0.316527343 0.324677986
0.343643062 0.352086996 0.324677986 0.332022776 0.352086996 0.359888545
0.332022776 0.338591403 0.359888545 0.366891395 0.338591403 0.344377848
0.366891395 0.373072742 0.344377848 0.349381433 0.373072742 0.37841734
0.349381433 0.353603185 0.37841734 0.382922849 0.353603185 0.357046823
0.382922849 0.386594045 0.357046823 0.359717529 0.386594045 0.389438395
0.359717529 0.361620615 0.389438395 0.39146358 0.361620615 0.362760522
0.39146358 0.392675945 0.362760522 0.363140156 0.392675945 0.393079595
0.327731794 0.355323402 0.352368616 0.334144268 0.313708122 0.327731794
0.334782929 0.355323402 0.361993452 0.334782929 0.343643062 0.361993452
0.370873751 0.343643062 0.352086996 0.370873751 0.380024612 0.352086996
0.359888545 0.380024612 0.388305468 0.359888545 0.366891395 0.388305468
0.395775305 0.366891395 0.373072742 0.395775305 0.402364647 0.373072742
0.37841734 0.402364647 0.408050146 0.37841734 0.382922849 0.408050146
0.412833448 0.382922849 0.386594045 0.412833448 0.416723945 0.386594045
0.389438395 0.416723945 0.419733767 0.389438395 0.39146358 0.419733767
0.421874434 0.39146358 0.392675945 0.421874434 0.423155013 0.392675945
0.393079595 0.423155013 0.423581223 0.355323402 0.377551844 0.37738367
0.365067219 0.352369109 0.355323402 0.361993452 0.377551844 0.38637274
0.361993452 0.370873751 0.38637274 0.398935671 0.370873751 0.380024612
0.398935671 0.408418126 0.380024612 0.388305468 0.408418126 0.417312853
0.388305468 0.395775305 0.417312853 0.425313494 0.395775305 0.402364647
0.425313494 0.432320873 0.402364647 0.408050146 0.432320873 0.438343456
0.408050146 0.412833448 0.438343456 0.443393394 0.412833448 0.416723945
0.443393394 0.44748999 0.416723945 0.419733767 0.44748999 0.450653251
0.419733767 0.421874434 0.450653251 0.452900073 0.421874434 0.423155013
0.452900073 0.454243023 0.423155013 0.423581223 0.454243023 0.454689808
0.377551844 0.379719183 0.37853432 0.377383985 0.377551844 0.38637274
0.418986487 0.411449831 0.39525757 0.37971931 0.38637274 0.398935671
0.418986487 0.426823742 0.398935671 0.408418126 0.426823742 0.437260033
0.408418126 0.417312853 0.437260033 0.447076457 0.417312853 0.425313494
0.447076457 0.455596911 0.425313494 0.432320873 0.455596911 0.463023012
0.432320873 0.438343456 0.463023012 0.469367594 0.438343456 0.443393394
0.469367594 0.47466211 0.443393394 0.44748999 0.47466211 0.478944041
0.44748999 0.450653251 0.478944041 0.482243539 0.450653251 0.452900073
0.482243539 0.484583797 0.452900073 0.454243023 0.484583797 0.485981336
0.454243023 0.454689808 0.485981336 0.486446078 0.418986487 0.442785391
0.441939936 0.427542496 0.411450258 0.418986487 0.426823742 0.442785391
0.453543813 0.426823742 0.437260033 0.453543813 0.467555255 0.437260033
0.447076457 0.467555255 0.477681921 0.447076457 0.455596911 0.477681921
0.486740641 0.455596911 0.463023012 0.486740641 0.494573611 0.463023012
0.469367594 0.494573611 0.501195096 0.469367594 0.47466211 0.501195096
0.506696782 0.47466211 0.478944041 0.506696782 0.511134103 0.478944041
0.482243539 0.511134103 0.514546736 0.482243539 0.484583797 0.514546736
0.516963903 0.484583797 0.485981336 0.516963903 0.518406097 0.485981336
0.486446078 0.518406097 0.518885484 0.442785391 0.453069783 0.447198426
0.441940315 0.442785391 0.453543813 0.489805175 0.479289239 0.466042129
0.45307007 0.453543813 0.467555255 0.489805175 0.49832082 0.467555255
0.477681921 0.49832082 0.509197658 0.477681921 0.486740641 0.509197658
0.518975173 0.486740641 0.494573611 0.518975173 0.527067966 0.494573611
0.501195096 0.527067966 0.533890072 0.501195096 0.506696782 0.533890072
0.539547197 0.506696782 0.511134103 0.539547197 0.544101618 0.511134103
0.514546736 0.544101618 0.547598381 0.514546736 0.516963903 0.547598381
0.550072083 0.516963903 0.518406097 0.550072083 0.55154683 0.518406097
0.518885484 0.55154683 0.552036844 0.489805175 0.516857446 0.51481315
0.49798612 0.479289613 0.489805175 0.49832082 0.516857446 0.528326775
0.49832082 0.509197658 0.528326775 0.542866093 0.509197658 0.518975173
0.542866093 0.552382161 0.518975173 0.527067966 0.552382161 0.560558914
0.527067966 0.533890072 0.560558914 0.56749564 0.533890072 0.539547197
0.56749564 0.57325295 0.539547197 0.544101618 0.57325295 0.577878897
0.544101618 0.547598381 0.577878897 0.581425473 0.547598381 0.550072083
0.581425473 0.583931815 0.550072083 0.55154683 0.583931815 0.585425008
0.55154683 0.552036844 0.585425008 0.585920982 0.516857446 0.547410536
0.529066353 0.514813395 0.516857446 0.528326775 0.570359509 0.556443617
0.551919405 0.547410846 0.528326775 0.542866093 0.570359509 0.577780471
0.542866093 0.552382161 0.577780471 0.586853758 0.552382161 0.560558914
0.586853758 0.595024833 0.560558914 0.56749564 0.595024833 0.602049284
0.56749564 0.57325295 0.602049284 0.607841481 0.57325295 0.577878897
0.607841481 0.612486988 0.577878897 0.581425473 0.612486988 0.616044666
0.581425473 0.583931815 0.616044666 0.618556915 0.583931815 0.585425008
0.618556915 0.620052742 0.585425008 0.585920982 0.620052742 0.620549428
0.570359509 0.605823506 0.60230958 0.580329897 0.556444067 0.570359509
0.577780471 0.605823506 0.612935397 0.577780471 0.586853758 0.612935397
0.621964147 0.586853758 0.595024833 0.621964147 0.630585626 0.595024833
0.602049284 0.630585626 0.637576716 0.602049284 0.607841481 0.637576716
0.643325688 0.607841481 0.612486988 0.643325688 0.647933267 0.612486988
0.616044666 0.647933267 0.651461063 0.616044666 0.618556915 0.651461063
0.65395049 0.618556915 0.620052742 0.65395049 0.655431641 0.620052742
0.620549428 0.655431641 0.655923238 0.605823506 0.635448789 0.634325156
0.618517453 0.602310154 0.605823506 0.612935397 0.635448789 0.645396697
0.612935397 0.621964147 0.645396697 0.659123879 0.621964147 0.630585626
0.659123879 0.667280093 0.630585626 0.637576716 0.667280093 0.674079873
0.637576716 0.643325688 0.674079873 0.679694424 0.643325688 0.647933267
0.679694424 0.684211047 0.647933267 0.651461063 0.684211047 0.687668352
0.651461063 0.65395049 0.687668352 0.690104361 0.65395049 0.655431641
0.690104361 0.691551753 0.655431641 0.655923238 0.691551753 0.692031781
0.635448789 0.663228687 0.647457649 0.634325533 0.635448789 0.645396697
0.691392099 0.678465343 0.670829179 0.663229126 0.645396697 0.659123879
0.691392099 0.697651635 0.659123879 0.667280093 0.697651635 0.705052912
0.667280093 0.674079873 0.705052912 0.711473536 0.674079873 0.679694424
0.711473536 0.716917569 0.679694424 0.684211047 0.716917569 0.721305276
0.684211047 0.687668352 0.721305276 0.724650319 0.687668352 0.690104361
0.724650319 0.72699857 0.690104361 0.691551753 0.72699857 0.728390274
0.691551753 0.692031781 0.728390274 0.728851252 0.691392099 0.731810665
0.728946361 0.704601909 0.678465893 0.691392099 0.697651635 0.731810665
0.737036276 0.697651635 0.705052912 0.737036276 0.743388033 0.705052912
0.711473536 0.743388033 0.749657554 0.711473536 0.716917569 0.749657554
0.754985409 0.716917569 0.721305276 0.754985409 0.759201012 0.721305276
0.724650319 0.759201012 0.76238165 0.724650319 0.72699857 0.76238165
0.764599864 0.72699857 0.728390274 0.764599864 0.765909563 0.728390274
0.728851252 0.765909563 0.766342627 0.731810665 0.769546657 0.768051098
0.748664416 0.728946847 0.731810665 0.737036276 0.769546657 0.774717211
0.737036276 0.743388033 0.774717211 0.781998574 0.743388033 0.749657554
0.781998574 0.788784141 0.749657554 0.754985409 0.788784141 0.793927836
0.754985409 0.759201012 0.793927836 0.797883922 0.759201012 0.76238165
0.797883922 0.800823696 0.76238165 0.764599864 0.800823696 0.802858122
0.764599864 0.765909563 0.802858122 0.804054293 0.765909563 0.766342627
0.804054293 0.804449083 0.769546657 0.800625197 0.800160632 0.78422889
0.768051384 0.769546657 0.774717211 0.800625197 0.80987745 0.774717211
0.781998574 0.80987745 0.822722417 0.781998574 0.788784141 0.822722417
0.829073085 0.788784141 0.793927836 0.829073085 0.8337878 0.793927836
0.797883922 0.8337878 0.837317345 0.797883922 0.800823696 0.837317345
0.839914204 0.800823696 0.802858122 0.839914204 0.841701026 0.802858122
0.804054293 0.841701026 0.84274826 0.804054293 0.804449083 0.84274826
0.843093379 0.800625197 0.822973759 0.811074249 0.800160729 0.800625197
0.80987745 0.860466202 0.847800391 0.835387267 0.822974221 0.80987745
0.822722417 0.860466202 0.865459843 0.822722417 0.829073085 0.865459843
0.870670408 0.829073085 0.8337878 0.870670408 0.874501238 0.8337878
0.837317345 0.874501238 0.877412006 0.837317345 0.839914204 0.877412006