<VTKFile type="UnstructuredGrid" version="1.0" header_type="UInt32">
<UnstructuredGrid>
<Piece NumberOfPoints="4096" NumberOfCells="2048">
<Points>
<DataArray type="Float32" NumberOfComponents="3" format="ascii">
0 0 0 0.03125 0 0
0 0.03125 0 0.03125 0.03125 0
0.03125 0 0 0.0625 0 0
0.03125 0.03125 0 0.0625 0.03125 0
0.0625 0 0 0.09375 0 0
0.0625 0.03125 0 0.09375 0.03125 0
0.09375 0 0 0.125 0 0
0.09375 0.03125 0 0.125 0.03125 0
0.125 0 0 0.15625 0 0
0.125 0.03125 0 0.15625 0.03125 0
0.15625 0 0 0.1875 0 0
0.15625 0.03125 0 0.1875 0.03125 0
0.1875 0 0 0.21875 0 0
0.1875 0.03125 0 0.21875 0.03125 0
0.21875 0 0 0.25 0 0
0.21875 0.03125 0 0.25 0.03125 0
0.25 0 0 0.28125 0 0
0.25 0.03125 0 0.28125 0.03125 0
0.28125 0 0 0.3125 0 0
0.28125 0.03125 0 0.3125 0.03125 0
0.3125 0 0 0.34375 0 0
0.3125 0.03125 0 0.34375 0.03125 0
0.34375 0 0 0.375 0 0
0.34375 0.03125 0 0.375 0.03125 0
0.375 0 0 0.40625 0 0
0.375 0.03125 0 0.40625 0.03125 0
0.40625 0 0 0.4375 0 0
0.40625 0.03125 0 0.4375 0.03125 0
0.4375 0 0 0.46875 0 0
0.4375 0.03125 0 0.46875 0.03125 0
0.46875 0 0 0.5 0 0
0.46875 0.03125 0 0.5 0.03125 0
0.5 0 0 0.53125 0 0
0.5 0.03125 0 0.53125 0.03125 0
0.53125 0 0 0.5625 0 0
0.53125 0.03125 0 0.5625 0.03125 0
0.5625 0 0 0.59375 0 0
0.5625 0.03125 0 0.59375 0.03125 0
0.59375 0 0 0.625 0 0
0.59375 0.03125 0 0.625 0.03125 0
0.625 0 0 0.65625 0 0
0.625 0.03125 0 0.65625 0.03125 0
0.65625 0 0 0.6875 0 0
0.65625 0.03125 0 0.6875 0.03125 0
0.6875 0 0 0.71875 0 0
0.6875 0.03125 0 0.71875 0.03125 0
0.71875 0 0 0.75 0 0
0.71875 0.03125 0 0.75 0.03125 0
0.75 0 0 0.78125 0 0
0.75 0.03125 0 0.78125 0.03125 0
0.78125 0 0 0.8125 0 0
0.78125 0.03125 0 0.8125 0.03125 0
0.8125 0 0 0.84375 0 0
0.8125 0.03125 0 0.84375 0.03125 0
0.84375 0 0 0.875 0 0
0.84375 0.03125 0 0.875 0.03125 0
0.875 0 0 0.90625 0 0
0.875 0.03125 0 0.90625 0.03125 0
0.90625 0 0 0.9375 0 0
0.90625 0.03125 0 0.9375 0.03125 0
0.9375 0 0 0.96875 0 0
0.9375 0.03125 0 0.96875 0.03125 0
0.96875 0 0 1 0 0
0.96875 0.03125 0 1 0.03125 0
0 0.03125 0 0.03125 0.03125 0
0 0.0625 0 0.03125 0.0625 0
0.03125 0.03125 0 0.0625 0.03125 0
0.03125 0.0625 0 0.0625 0.0625 0
0.0625 0.03125 0 0.09375 0.03125 0
0.0625 0.0625 0 0.09375 0.0625 0
0.09375 0.03125 0 0.125 0.03125 0
0.09375 0.0625 0 0.125 0.0625 0
0.125 0.03125 0 0.15625 0.03125 0
0.125 0.0625 0 0.15625 0.0625 0
0.15625 0.03125 0 0.1875 0.03125 0
0.15625 0.0625 0 0.1875 0.0625 0
0.1875 0.03125 0 0.21875 0.03125 0
0.1875 0.0625 0 0.21875 0.0625 0
0.21875 0.03125 0 0.25 0.03125 0
0.21875 0.0625 0 0.25 0.0625 0
0.25 0.03125 0 0.28125 0.03125 0
0.25 0.0625 0 0.28125 0.0625 0
0.28125 0.03125 0 0.3125 0.03125 0
0.28125 0.0625 0 0.3125 0.0625 0
0.3125 0.03125 0 0.34375 0.03125 0
0.3125 0.0625 0 0.34375 0.0625 0
0.34375 0.03125 0 0.375 0.03125 0
0.34375 0.0625 0 0.375 0.0625 0
0.375 0.03125 0 0.40625 0.03125 0
0.375 0.0625 0 0.40625 0.0625 0
0.40625 0.03125 0 0.4375 0.03125 0
0.40625 0.0625 0 0.4375 0.0625 0
0.4375 0.03125 0 0.46875 0.03125 0
0.4375 0.0625 0 0.46875 0.0625 0
0.46875 0.03125 0 0.5 0.03125 0
0.46875 0.0625 0 0.5 0.0625 0
0.5 0.03125 0 0.53125 0.03125 0
0.5 0.0625 0 0.53125 0.0625 0
0.53125 0.03125 0 0.5625 0.03125 0
0.53125 0.0625 0 0.5625 0.0625 0
0.5625 0.03125 0 0.59375 0.03125 0
0.5625 0.0625 0 0.59375 0.0625 0
0.59375 0.03125 0 0.625 0.03125 0
0.59375 0.0625 0 0.625 0.0625 0
0.625 0.03125 0 0.65625 0.03125 0
0.625 0.0625 0 0.65625 0.0625 0
0.65625 0.03125 0 0.6875 0.03125 0
0.65625 0.0625 0 0.6875 0.0625 0
0.6875 0.03125 0 0.71875 0.03125 0
0.6875 0.0625 0 0.71875 0.0625 0
0.71875 0.03125 0 0.75 0.03125 0
0.71875 0.0625 0 0.75 0.0625 0
0.75 0.03125 0 0.78125 0.03125 0
0.75 0.0625 0 0.78125 0.0625 0
0.78125 0.03125 0 0.8125 0.03125 0
0.78125 0.0625 0 0.8125 0.0625 0
0.8125 0.03125 0 0.84375 0.03125 0
0.8125 0.0625 0 0.84375 0.0625 0
0.84375 0.03125 0 0.875 0.03125 0
0.84375 0.0625 0 0.875 0.0625 0
0.875 0.03125 0 0.90625 0.03125 0
0.875 0.0625 0 0.90625 0.0625 0
0.90625 0.03125 0 0.9375 0.03125 0
0.90625 0.0625 0 0.9375 0.0625 0
0.9375 0.03125 0 0.96875 0.03125 0
0.9375 0.0625 0 0.96875 0.0625 0
0.96875 0.03125 0 1 0.03125 0
0.96875 0.0625 0 1 0.0625 0
0 0.0625 0 0.03125 0.0625 0
0 0.09375 0 0.03125 0.09375 0
0.03125 0.0625 0 0.0625 0.0625 0
0.03125 0.09375 0 0.0625 0.09375 0
0.0625 0.0625 0 0.09375 0.0625 0
0.0625 0.09375 0 0.09375 0.09375 0
0.09375 0.0625 0 0.125 0.0625 0
0.09375 0.09375 0 0.125 0.09375 0
0.125 0.0625 0 0.15625 0.0625 0
0.125 0.09375 0 0.15625 0.09375 0
0.15625 0.0625 0 0.1875 0.0625 0
0.15625 0.09375 0 0.1875 0.09375 0
0.1875 0.0625 0 0.21875 0.0625 0
0.1875 0.09375 0 0.21875 0.09375 0
0.21875 0.0625 0 0.25 0.0625 0
0.21875 0.09375 0 0.25 0.09375 0
0.25 0.0625 0 0.28125 0.0625 0
0.25 0.09375 0 0.28125 0.09375 0
0.28125 0.0625 0 0.3125 0.0625 0
0.28125 0.09375 0 0.3125 0.09375 0
0.3125 0.0625 0 0.34375 0.0625 0
0.3125 0.09375 0 0.34375 0.09375 0
0.34375 0.0625 0 0.375 0.0625 0
0.34375 0.09375 0 0.375 0.09375 0
0.375 0.0625 0 0.40625 0.0625 0
0.375 0.09375 0 0.40625 0.09375 0
0.40625 0.0625 0 0.4375 0.0625 0
0.40625 0.09375 0 0.4375 0.09375 0
0.4375 0.0625 0 0.46875 0.0625 0
0.4375 0.09375 0 0.46875 0.09375 0
0.46875 0.0625 0 0.5 0.0625 0
0.46875 0.09375 0 0.5 0.09375 0
0.5 0.0625 0 0.53125 0.0625 0
0.5 0.09375 0 0.53125 0.09375 0
0.53125 0.0625 0 0.5625 0.0625 0
0.53125 0.09375 0 0.5625 0.09375 0
0.5625 0.0625 0 0.59375 0.0625 0
0.5625 0.09375 0 0.59375 0.09375 0
0.59375 0.0625 0 0.625 0.0625 0
0.59375 0.09375 0 0.625 0.09375 0
0.625 0.0625 0 0.65625 0.0625 0
0.625 0.09375 0 0.65625 0.09375 0
0.65625 0.0625 0 0.6875 0.0625 0
0.65625 0.09375 0 0.6875 0.09375 0
0.6875 0.0625 0 0.71875 0.0625 0
0.6875 0.09375 0 0.71875 0.09375 0
0.71875 0.0625 0 0.75 0.0625 0
0.71875 0.09375 0 0.75 0.09375 0
0.75 0.0625 0 0.78125 0.0625 0
0.75 0.09375 0 0.78125 0.09375 0
0.78125 0.0625 0 0.8125 0.0625 0
0.78125 0.09375 0 0.8125 0.09375 0
0.8125 0.0625 0 0.84375 0.0625 0
0.8125 0.09375 0 0.84375 0.09375 0
0.84375 0.0625 0 0.875 0.0625 0
0.84375 0.09375 0 0.875 0.09375 0
0.875 0.0625 0 0.90625 0.0625 0
0.875 0.09375 0 0.90625 0.09375 0
0.90625 0.0625 0 0.9375 0.0625 0
0.90625 0.09375 0 0.9375 0.09375 0
0.9375 0.0625 0 0.96875 0.0625 0
0.9375 0.09375 0 0.96875 0.09375 0
0.96875 0.0625 0 1 0.0625 0
0.96875 0.09375 0 1 0.09375 0
0 0.09375 0 0.03125 0.09375 0
0 0.125 0 0.03125 0.125 0
0.03125 0.09375 0 0.0625 0.09375 0
0.03125 0.125 0 0.0625 0.125 0
0.0625 0.09375 0 0.09375 0.09375 0
0.0625 0.125 0 0.09375 0.125 0
0.09375 0.09375 0 0.125 0.09375 0
0.09375 0.125 0 0.125 0.125 0
0.125 0.09375 0 0.15625 0.09375 0
0.125 0.125 0 0.15625 0.125 0
0.15625 0.09375 0 0.1875 0.09375 0
0.15625 0.125 0 0.1875 0.125 0
0.1875 0.09375 0 0.21875 0.09375 0
0.1875 0.125 0 0.21875 0.125 0
0.21875 0.09375 0 0.25 0.09375 0
0.21875 0.125 0 0.25 0.125 0
0.25 0.09375 0 0.28125 0.09375 0
0.25 0.125 0 0.28125 0.125 0
0.28125 0.09375 0 0.3125 0.09375 0
0.28125 0.125 0 0.3125 0.125 0
0.3125 0.09375 0 0.34375 0.09375 0
0.3125 0.125 0 0.34375 0.125 0
0.34375 0.09375 0 0.375 0.09375 0
0.34375 0.125 0 0.375 0.125 0
0.375 0.09375 0 0.40625 0.09375 0
0.375 0.125 0 0.40625 0.125 0
0.40625 0.09375 0 0.4375 0.09375 0
0.40625 0.125 0 0.4375 0.125 0
0.4375 0.09375 0 0.46875 0.09375 0
0.4375 0.125 0 0.46875 0.125 0
0.46875 0.09375 0 0.5 0.09375 0
0.46875 0.125 0 0.5 0.125 0
0.5 0.09375 0 0.53125 0.09375 0
0.5 0.125 0 0.53125 0.125 0
0.53125 0.09375 0 0.5625 0.09375 0
0.53125 0.125 0 0.5625 0.125 0
0.5625 0.09375 0 0.59375 0.09375 0
0.5625 0.125 0 0.59375 0.125 0
0.59375 0.09375 0 0.625 0.09375 0
0.59375 0.125 0 0.625 0.125 0
0.625 0.09375 0 0.65625 0.09375 0
0.625 0.125 0 0.65625 0.125 0
0.65625 0.09375 0 0.6875 0.09375 0
0.65625 0.125 0 0.6875 0.125 0
0.6875 0.09375 0 0.71875 0.09375 0
0.6875 0.125 0 0.71875 0.125 0
0.71875 0.09375 0 0.75 0.09375 0
0.71875 0.125 0 0.75 0.125 0
0.75 0.09375 0 0.78125 0.09375 0
0.75 0.125 0 0.78125 0.125 0
0.78125 0.09375 0 0.8125 0.09375 0
0.78125 0.125 0 0.8125 0.125 0
0.8125 0.09375 0 0.84375 0.09375 0
0.8125 0.125 0 0.84375 0.125 0
0.84375 0.09375 0 0.875 0.09375 0
0.84375 0.125 0 0.875 0.125 0
0.875 0.09375 0 0.90625 0.09375 0
0.875 0.125 0 0.90625 0.125 0
0.90625 0.09375 0 0.9375 0.09375 0
0.90625 0.125 0 0.9375 0.125 0
0.9375 0.09375 0 0.96875 0.09375 0
0.9375 0.125 0 0.96875 0.125 0
0.96875 0.09375 0 1 0.09375 0
0.96875 0.125 0 1 0.125 0
0 0.125 0 0.03125 0.125 0
0 0.15625 0 0.03125 0.15625 0
0.03125 0.125 0 0.0625 0.125 0
0.03125 0.15625 0 0.0625 0.15625 0
0.0625 0.125 0 0.09375 0.125 0
0.0625 0.15625 0 0.09375 0.15625 0
0.09375 0.125 0 0.125 0.125 0
0.09375 0.15625 0 0.125 0.15625 0
0.125 0.125 0 0.15625 0.125 0
0.125 0.15625 0 0.15625 0.15625 0
0.15625 0.125 0 0.1875 0.125 0
0.15625 0.15625 0 0.1875 0.15625 0
0.1875 0.125 0 0.21875 0.125 0
0.1875 0.15625 0 0.21875 0.15625 0
0.21875 0.125 0 0.25 0.125 0
0.21875 0.15625 0 0.25 0.15625 0
0.25 0.125 0 0.28125 0.125 0
0.25 0.15625 0 0.28125 0.15625 0
0.28125 0.125 0 0.3125 0.125 0
0.28125 0.15625 0 0.3125 0.15625 0
0.3125 0.125 0 0.34375 0.125 0
0.3125 0.15625 0 0.34375 0.15625 0
0.34375 0.125 0 0.375 0.125 0
0.34375 0.15625 0 0.375 0.15625 0
0.375 0.125 0 0.40625 0.125 0
0.375 0.15625 0 0.40625 0.15625 0
0.40625 0.125 0 0.4375 0.125 0
0.40625 0.15625 0 0.4375 0.15625 0
0.4375 0.125 0 0.46875 0.125 0
0.4375 0.15625 0 0.46875 0.15625 0
0.46875 0.125 0 0.5 0.125 0
0.46875 0.15625 0 0.5 0.15625 0
0.5 0.125 0 0.53125 0.125 0
0.5 0.15625 0 0.53125 0.15625 0
0.53125 0.125 0 0.5625 0.125 0
0.53125 0.15625 0 0.5625 0.15625 0
0.5625 0.125 0 0.59375 0.125 0
0.5625 0.15625 0 0.59375 0.15625 0
0.59375 0.125 0 0.625 0.125 0
0.59375 0.15625 0 0.625 0.15625 0
0.625 0.125 0 0.65625 0.125 0
0.625 0.15625 0 0.65625 0.15625 0
0.65625 0.125 0 0.6875 0.125 0
0.65625 0.15625 0 0.6875 0.15625 0
0.6875 0.125 0 0.71875 0.125 0
0.6875 0.15625 0 0.71875 0.15625 0
0.71875 0.125 0 0.75 0.125 0
0.71875 0.15625 0 0.75 0.15625 0
0.75 0.125 0 0.78125 0.125 0
0.75 0.15625 0 0.78125 0.15625 0
0.78125 0.125 0 0.8125 0.125 0
0.78125 0.15625 0 0.8125 0.15625 0
0.8125 0.125 0 0.84375 0.125 0
[...]
<PointData>
<DataArray Name="g" type="Float32" NumberOfComponents="10" format="ascii">
0 0 0 0 0 0
0 0 0 0 0 0
0 0 0 0 0 0
0 0 0 0 0 0
0 0 0 0 0 0
0.00613588465 0.0009765625 0.00613588465 0.0009765625 0.00613588465 0.0009765625
0.00613588465 0.0009765625 0.00613588465 0.0009765625 0 0
0 0 0 0 0 0
0 0 0 0 0 0
0 0 0 0 0 0
0.00613588465 0.0009765625 0.00613588465 0.0009765625 0.00613588465 0.0009765625
0.00613588465 0.0009765625 0.00613588465 0.0009765625 0.0122715383 0.001953125
0.0122715383 0.001953125 0.0122715383 0.001953125 0.0122715383 0.001953125
0.0122715383 0.001953125 0 0 0 0
0 0 0 0 0 0
0 0 0 0 0 0
0 0 0 0 0.0122715383 0.001953125
0.0122715383 0.001953125 0.0122715383 0.001953125 0.0122715383 0.001953125
0.0122715383 0.001953125 0.0184067299 0.0029296875 0.0184067299 0.0029296875
0.0184067299 0.0029296875 0.0184067299 0.0029296875 0.0184067299 0.0029296875
0 0 0 0 0 0
0 0 0 0 0 0
0 0 0 0 0 0
0 0 0.0184067299 0.0029296875 0.0184067299 0.0029296875
0.0184067299 0.0029296875 0.0184067299 0.0029296875 0.0184067299 0.0029296875
0.0245412285 0.00390625 0.0245412285 0.00390625 0.0245412285 0.00390625
0.0245412285 0.00390625 0.0245412285 0.00390625 0 0
0 0 0 0 0 0
0 0 0 0 0 0
0 0 0 0 0 0
0.0245412285 0.00390625 0.0245412285 0.00390625 0.0245412285 0.00390625
0.0245412285 0.00390625 0.0245412285 0.00390625 0.0306748032 0.0048828125
0.0306748032 0.0048828125 0.0306748032 0.0048828125 0.0306748032 0.0048828125
0.0306748032 0.0048828125 0 0 0 0
0 0 0 0 0 0
0 0 0 0 0 0
0 0 0 0 0.0306748032 0.0048828125
0.0306748032 0.0048828125 0.0306748032 0.0048828125 0.0306748032 0.0048828125
0.0306748032 0.0048828125 0.0368072229 0.005859375 0.0368072229 0.005859375
0.0368072229 0.005859375 0.0368072229 0.005859375 0.0368072229 0.005859375
0 0 0 0 0 0
0 0 0 0 0 0
0 0 0 0 0 0
0 0 0.0368072229 0.005859375 0.0368072229 0.005859375
0.0368072229 0.005859375 0.0368072229 0.005859375 0.0368072229 0.005859375
0.0429382569 0.0068359375 0.0429382569 0.0068359375 0.0429382569 0.0068359375
0.0429382569 0.0068359375 0.0429382569 0.0068359375 0 0
0 0 0 0 0 0
0 0 0 0 0 0
0 0 0 0 0 0
0.0429382569 0.0068359375 0.0429382569 0.0068359375 0.0429382569 0.0068359375
0.0429382569 0.0068359375 0.0429382569 0.0068359375 0.0490676743 0.0078125
0.0490676743 0.0078125 0.0490676743 0.0078125 0.0490676743 0.0078125
0.0490676743 0.0078125 0 0 0 0
0 0 0 0 0 0
0 0 0 0 0 0
0 0 0 0 0.0490676743 0.0078125
0.0490676743 0.0078125 0.0490676743 0.0078125 0.0490676743 0.0078125
0.0490676743 0.0078125 0.0551952443 0.0087890625 0.0551952443 0.0087890625
0.0551952443 0.0087890625 0.0551952443 0.0087890625 0.0551952443 0.0087890625
0 0 0 0 0 0
0 0 0 0 0 0
0 0 0 0 0 0
0 0 0.0551952443 0.0087890625 0.0551952443 0.0087890625
0.0551952443 0.0087890625 0.0551952443 0.0087890625 0.0551952443 0.0087890625
0.0613207363 0.009765625 0.0613207363 0.009765625 0.0613207363 0.009765625
0.0613207363 0.009765625 0.0613207363 0.009765625 0 0
0 0 0 0 0 0
0 0 0 0 0 0
0 0 0 0 0 0
0.0613207363 0.009765625 0.0613207363 0.009765625 0.0613207363 0.009765625
0.0613207363 0.009765625 0.0613207363 0.009765625 0.0674439196 0.0107421875
0.0674439196 0.0107421875 0.0674439196 0.0107421875 0.0674439196 0.0107421875
0.0674439196 0.0107421875 0 0 0 0
0 0 0 0 0 0
0 0 0 0 0 0
0 0 0 0 0.0674439196 0.0107421875
0.0674439196 0.0107421875 0.0674439196 0.0107421875 0.0674439196 0.0107421875
0.0674439196 0.0107421875 0.0735645636 0.01171875 0.0735645636 0.01171875
0.0735645636 0.01171875 0.0735645636 0.01171875 0.0735645636 0.01171875
0 0 0 0 0 0
0 0 0 0 0 0
0 0 0 0 0 0
0 0 0.0735645636 0.01171875 0.0735645636 0.01171875
0.0735645636 0.01171875 0.0735645636 0.01171875 0.0735645636 0.01171875
0.079682438 0.0126953125 0.079682438 0.0126953125 0.079682438 0.0126953125
0.079682438 0.0126953125 0.079682438 0.0126953125 0 0
0 0 0 0 0 0
0 0 0 0 0 0
0 0 0 0 0 0
0.079682438 0.0126953125 0.079682438 0.0126953125 0.079682438 0.0126953125
0.079682438 0.0126953125 0.079682438 0.0126953125 0.0857973123 0.013671875
0.0857973123 0.013671875 0.0857973123 0.013671875 0.0857973123 0.013671875
0.0857973123 0.013671875 0 0 0 0
0 0 0 0 0 0
0 0 0 0 0 0
0 0 0 0 0.0857973123 0.013671875
0.0857973123 0.013671875 0.0857973123 0.013671875 0.0857973123 0.013671875
0.0857973123 0.013671875 0.0919089565 0.0146484375 0.0919089565 0.0146484375
0.0919089565 0.0146484375 0.0919089565 0.0146484375 0.0919089565 0.0146484375
0 0 0 0 0 0
0 0 0 0 0 0
0 0 0 0 0 0
0 0 0.0919089565 0.0146484375 0.0919089565 0.0146484375
0.0919089565 0.0146484375 0.0919089565 0.0146484375 0.0919089565 0.0146484375
0.0980171403 0.015625 0.0980171403 0.015625 0.0980171403 0.015625
0.0980171403 0.015625 0.0980171403 0.015625 0 0
0 0 0 0 0 0
0 0 0 0 0 0
0 0 0 0 0 0
0.0980171403 0.015625 0.0980171403 0.015625 0.0980171403 0.015625
0.0980171403 0.015625 0.0980171403 0.015625 0.104121634 0.0166015625
0.104121634 0.0166015625 0.104121634 0.0166015625 0.104121634 0.0166015625
0.104121634 0.0166015625 0 0 0 0
0 0 0 0 0 0
0 0 0 0 0 0
0 0 0 0 0.104121634 0.0166015625
0.104121634 0.0166015625 0.104121634 0.0166015625 0.104121634 0.0166015625
0.104121634 0.0166015625 0.110222207 0.017578125 0.110222207 0.017578125
0.110222207 0.017578125 0.110222207 0.017578125 0.110222207 0.017578125
0 0 0 0 0 0
0 0 0 0 0 0
0 0 0 0 0 0
0 0 0.110222207 0.017578125 0.110222207 0.017578125
0.110222207 0.017578125 0.110222207 0.017578125 0.110222207 0.017578125
0.116318631 0.0185546875 0.116318631 0.0185546875 0.116318631 0.0185546875
0.116318631 0.0185546875 0.116318631 0.0185546875 0 0
0 0 0 0 0 0
0 0 0 0 0 0
0 0 0 0 0 0
0.116318631 0.0185546875 0.116318631 0.0185546875 0.116318631 0.0185546875
0.116318631 0.0185546875 0.116318631 0.0185546875 0.122410675 0.01953125
0.122410675 0.01953125 0.122410675 0.01953125 0.122410675 0.01953125
0.122410675 0.01953125 0 0 0 0
0 0 0 0 0 0
0 0 0 0 0 0
0 0 0 0 0.122410675 0.01953125
0.122410675 0.01953125 0.122410675 0.01953125 0.122410675 0.01953125
0.122410675 0.01953125 0.128498111 0.0205078125 0.128498111 0.0205078125
0.128498111 0.0205078125 0.128498111 0.0205078125 0.128498111 0.0205078125
0 0 0 0 0 0
0 0 0 0 0 0
0 0 0 0 0 0
0 0 0.128498111 0.0205078125 0.128498111 0.0205078125
0.128498111 0.0205078125 0.128498111 0.0205078125 0.128498111 0.0205078125
0.134580709 0.021484375 0.134580709 0.021484375 0.134580709 0.021484375
0.134580709 0.021484375 0.134580709 0.021484375 0 0
0 0 0 0 0 0
0 0 0 0 0 0
0 0 0 0 0 0
0.134580709 0.021484375 0.134580709 0.021484375 0.134580709 0.021484375
0.134580709 0.021484375 0.134580709 0.021484375 0.140658239 0.0224609375
0.140658239 0.0224609375 0.140658239 0.0224609375 0.140658239 0.0224609375
0.140658239 0.0224609375 0 0 0 0
0 0 0 0 0 0
0 0 0 0 0 0
0 0 0 0 0.140658239 0.0224609375
0.140658239 0.0224609375 0.140658239 0.0224609375 0.140658239 0.0224609375
0.140658239 0.0224609375 0.146730474 0.0234375 0.146730474 0.0234375
0.146730474 0.0234375 0.146730474 0.0234375 0.146730474 0.0234375
0 0 0 0 0 0
0 0 0 0 0 0
0 0 0 0 0 0
0 0 0.146730474 0.0234375 0.146730474 0.0234375
0.146730474 0.0234375 0.146730474 0.0234375 0.146730474 0.0234375
0.152797185 0.0244140625 0.152797185 0.0244140625 0.152797185 0.0244140625
0.152797185 0.0244140625 0.152797185 0.0244140625 0 0
0 0 0 0 0 0
0 0 0 0 0 0
0 0 0 0 0 0
0.152797185 0.0244140625 0.152797185 0.0244140625 0.152797185 0.0244140625
0.152797185 0.0244140625 0.152797185 0.0244140625 0.158858143 0.025390625
0.158858143 0.025390625 0.158858143 0.025390625 0.158858143 0.025390625
0.158858143 0.025390625 0 0 0 0
0 0 0 0 0 0
0 0 0 0 0 0
0 0 0 0 0.158858143 0.025390625
0.158858143 0.025390625 0.158858143 0.025390625 0.158858143 0.025390625
0.158858143 0.025390625 0.16491312 0.0263671875 0.16491312 0.0263671875
0.16491312 0.0263671875 0.16491312 0.0263671875 0.16491312 0.0263671875
0 0 0 0 0 0
0 0 0 0 0 0
0 0 0 0 0 0
0 0 0.16491312 0.0263671875 0.16491312 0.0263671875
0.16491312 0.0263671875 0.16491312 0.0263671875 0.16491312 0.0263671875
0.170961889 0.02734375 0.170961889 0.02734375 0.170961889 0.02734375
0.170961889 0.02734375 0.170961889 0.02734375 0 0
0 0 0 0 0 0
0 0 0 0 0 0
0 0 0 0 0 0
0.170961889 0.02734375 0.170961889 0.02734375 0.170961889 0.02734375
0.170961889 0.02734375 0.170961889 0.02734375 0.17700422 0.0283203125
0.17700422 0.0283203125 0.17700422 0.0283203125 0.17700422 0.0283203125
0.17700422 0.0283203125 0 0 0 0
0 0 0 0 0 0
0 0 0 0 0 0
0 0 0 0 0.17700422 0.0283203125
0.17700422 0.0283203125 0.17700422 0.0283203125 0.17700422 0.0283203125
0.17700422 0.0283203125 0.183039888 0.029296875 0.183039888 0.029296875
0.183039888 0.029296875 0.183039888 0.029296875 0.183039888 0.029296875
0 0 0 0 0 0
0 0 0 0 0 0
0 0 0 0 0 0
0 0 0.183039888 0.029296875 0.183039888 0.029296875
0.183039888 0.029296875 0.183039888 0.029296875 0.183039888 0.029296875
0.189068664 0.0302734375 0.189068664 0.0302734375 0.189068664 0.0302734375
0.189068664 0.0302734375 0.189068664 0.0302734375 0 0
0 0 0 0 0 0
0 0 0 0 0 0
0 0 0 0 0 0
0.189068664 0.0302734375 0.189068664 0.0302734375 0.189068664 0.0302734375
0.189068664 0.0302734375 0.189068664 0.0302734375 0.195090322 0.03125
0.195090322 0.03125 0.195090322 0.03125 0.195090322 0.03125
0.195090322 0.03125 0 0 0 0
0 0 0 0 0 0
0.00613588465 0.0009765625 0.00613588465 0.0009765625 0.00613588465 0.0009765625
0.00613588465 0.0009765625 0.00613588465 0.0009765625 0 0
0 0 0 0 0 0
0 0 0.0122715383 0.001953125 0.0122715383 0.001953125
0.0122715383 0.001953125 0.0122715383 0.001953125 0.0122715383 0.001953125
0.00613588465 0.0009765625 0.00613588465 0.0009765625 0.00613588465 0.0009765625
0.00613588465 0.0009765625 0.00613588465 0.0009765625 0.0122715383 0.001953125
0.0122715383 0.001953125 0.0122715383 0.001953125 0.0122715383 0.001953125
0.0122715383 0.001953125 0.0122715383 0.001953125 0.0122715383 0.001953125
0.0122715383 0.001953125 0.0122715383 0.001953125 0.0122715383 0.001953125
0.0245412285 0.00390625 0.0245412285 0.00390625 0.0245412285 0.00390625
0.0245412285 0.00390625 0.0245412285 0.00390625 0.0122715383 0.001953125
0.0122715383 0.001953125 0.0122715383 0.001953125 0.0122715383 0.001953125
0.0122715383 0.001953125 0.0184067299 0.0029296875 0.0184067299 0.0029296875
0.0184067299 0.0029296875 0.0184067299 0.0029296875 0.0184067299 0.0029296875
0.0245412285 0.00390625 0.0245412285 0.00390625 0.0245412285 0.00390625
0.0245412285 0.00390625 0.0245412285 0.00390625 0.0368072229 0.005859375
0.0368072229 0.005859375 0.0368072229 0.005859375 0.0368072229 0.005859375
0.0368072229 0.005859375 0.0184067299 0.0029296875 0.0184067299 0.0029296875
0.0184067299 0.0029296875 0.0184067299 0.0029296875 0.0184067299 0.0029296875
0.0245412285 0.00390625 0.0245412285 0.00390625 0.0245412285 0.00390625
0.0245412285 0.00390625 0.0245412285 0.00390625 0.0368072229 0.005859375
0.0368072229 0.005859375 0.0368072229 0.005859375 0.0368072229 0.005859375
0.0368072229 0.005859375 0.0490676743 0.0078125 0.0490676743 0.0078125
0.0490676743 0.0078125 0.0490676743 0.0078125 0.0490676743 0.0078125
0.0245412285 0.00390625 0.0245412285 0.00390625 0.0245412285 0.00390625
0.0245412285 0.00390625 0.0245412285 0.00390625 0.0306748032 0.0048828125
0.0306748032 0.0048828125 0.0306748032 0.0048828125 0.0306748032 0.0048828125
0.0306748032 0.0048828125 0.0490676743 0.0078125 0.0490676743 0.0078125
0.0490676743 0.0078125 0.0490676743 0.0078125 0.0490676743 0.0078125
0.0613207363 0.009765625 0.0613207363 0.009765625 0.0613207363 0.009765625
0.0613207363 0.009765625 0.0613207363 0.009765625 0.0306748032 0.0048828125
0.0306748032 0.0048828125 0.0306748032 0.0048828125 0.0306748032 0.0048828125
0.0306748032 0.0048828125 0.0368072229 0.005859375 0.0368072229 0.005859375
0.0368072229 0.005859375 0.0368072229 0.005859375 0.0368072229 0.005859375
0.0613207363 0.009765625 0.0613207363 0.009765625 0.0613207363 0.009765625
0.0613207363 0.009765625 0.0613207363 0.009765625 0.0735645636 0.01171875
0.0735645636 0.01171875 0.0735645636 0.01171875 0.0735645636 0.01171875
0.0735645636 0.01171875 0.0368072229 0.005859375 0.0368072229 0.005859375
0.0368072229 0.005859375 0.0368072229 0.005859375 0.0368072229 0.005859375
0.0429382569 0.0068359375 0.0429382569 0.0068359375 0.0429382569 0.0068359375
0.0429382569 0.0068359375 0.0429382569 0.0068359375 0.0735645636 0.01171875
0.0735645636 0.01171875 0.0735645636 0.01171875 0.0735645636 0.01171875
0.0735645636 0.01171875 0.0857973123 0.013671875 0.0857973123 0.013671875
0.0857973123 0.013671875 0.0857973123 0.013671875 0.0857973123 0.013671875
0.0429382569 0.0068359375 0.0429382569 0.0068359375 0.0429382569 0.0068359375
0.0429382569 0.0068359375 0.0429382569 0.0068359375 0.0490676743 0.0078125
0.0490676743 0.0078125 0.0490676743 0.0078125 0.0490676743 0.0078125
0.0490676743 0.0078125 0.0857973123 0.013671875 0.0857973123 0.013671875
0.0857973123 0.013671875 0.0857973123 0.013671875 0.0857973123 0.013671875
0.0980171403 0.015625 0.0980171403 0.015625 0.0980171403 0.015625
0.0980171403 0.015625 0.0980171403 0.015625 0.0490676743 0.0078125
0.0490676743 0.0078125 0.0490676743 0.0078125 0.0490676743 0.0078125
0.0490676743 0.0078125 0.0551952443 0.0087890625 0.0551952443 0.0087890625
0.0551952443 0.0087890625 0.0551952443 0.0087890625 0.0551952443 0.0087890625
0.0980171403 0.015625 0.0980171403 0.015625 0.0980171403 0.015625
0.0980171403 0.015625 0.0980171403 0.015625 0.110222207 0.017578125
0.110222207 0.017578125 0.110222207 0.017578125 0.110222207 0.017578125
0.110222207 0.017578125 0.0551952443 0.0087890625 0.0551952443 0.0087890625
0.0551952443 0.0087890625 0.0551952443 0.0087890625 0.0551952443 0.0087890625
0.0613207363 0.009765625 0.0613207363 0.009765625 0.0613207363 0.009765625
0.0613207363 0.009765625 0.0613207363 0.009765625 0.110222207 0.017578125
0.110222207 0.017578125 0.110222207 0.017578125 0.110222207 0.017578125
0.110222207 0.017578125 0.122410675 0.01953125 0.122410675 0.01953125
0.122410675 0.01953125 0.122410675 0.01953125 0.122410675 0.01953125
0.0613207363 0.009765625 0.0613207363 0.009765625 0.0613207363 0.009765625
0.0613207363 0.009765625 0.0613207363 0.009765625 0.0674439196 0.0107421875
0.0674439196 0.0107421875 0.0674439196 0.0107421875 0.0674439196 0.0107421875
0.0674439196 0.0107421875 0.122410675 0.01953125 0.122410675 0.01953125
0.122410675 0.01953125 0.122410675 0.01953125 0.122410675 0.01953125
0.134580709 0.021484375 0.134580709 0.021484375 0.134580709 0.021484375
0.134580709 0.021484375 0.134580709 0.021484375 0.0674439196 0.0107421875
0.0674439196 0.0107421875 0.0674439196 0.0107421875 0.0674439196 0.0107421875
0.0674439196 0.0107421875 0.0735645636 0.01171875 0.0735645636 0.01171875
0.0735645636 0.01171875 0.0735645636 0.01171875 0.0735645636 0.01171875
0.134580709 0.021484375 0.134580709 0.021484375 0.134580709 0.021484375
0.134580709 0.021484375 0.134580709 0.021484375 0.146730474 0.0234375
0.146730474 0.0234375 0.146730474 0.0234375 0.146730474 0.0234375
0.146730474 0.0234375 0.0735645636 0.01171875 0.0735645636 0.01171875
0.0735645636 0.01171875 0.0735645636 0.01171875 0.0735645636 0.01171875
0.079682438 0.0126953125 0.079682438 0.0126953125 0.079682438 0.0126953125
0.079682438 0.0126953125 0.079682438 0.0126953125 0.146730474 0.0234375
0.146730474 0.0234375 0.146730474 0.0234375 0.146730474 0.0234375
0.146730474 0.0234375 0.158858143 0.025390625 0.158858143 0.025390625
0.158858143 0.025390625 0.158858143 0.025390625 0.158858143 0.025390625
0.079682438 0.0126953125 0.079682438 0.0126953125 0.079682438 0.0126953125
0.079682438 0.0126953125 0.079682438 0.0126953125 0.0857973123 0.013671875
0.0857973123 0.013671875 0.0857973123 0.013671875 0.0857973123 0.013671875
0.0857973123 0.013671875 0.158858143 0.025390625 0.158858143 0.025390625
0.158858143 0.025390625 0.158858143 0.025390625 0.158858143 0.025390625
0.170961889 0.02734375 0.170961889 0.02734375 0.170961889 0.02734375
0.170961889 0.02734375 0.170961889 0.02734375 0.0857973123 0.013671875
0.0857973123 0.013671875 0.0857973123 0.013671875 0.0857973123 0.013671875
0.0857973123 0.013671875 0.0919089565 0.0146484375 0.0919089565 0.0146484375
0.0919089565 0.0146484375 0.0919089565 0.0146484375 0.0919089565 0.0146484375
0.170961889 0.02734375 0.170961889 0.02734375 0.170961889 0.02734375
0.170961889 0.02734375 0.170961889 0.02734375 0.183039888 0.029296875
0.183039888 0.029296875 0.183039888 0.029296875 0.183039888 0.029296875
0.183039888 0.029296875 0.0919089565 0.0146484375 0.0919089565 0.0146484375
0.0919089565 0.0146484375 0.0919089565 0.0146484375 0.0919089565 0.0146484375
0.0980171403 0.015625 0.0980171403 0.015625 0.0980171403 0.015625
0.0980171403 0.015625 0.0980171403 0.015625 0.183039888 0.029296875
0.183039888 0.029296875 0.183039888 0.029296875 0.183039888 0.029296875
0.183039888 0.029296875 0.195090322 0.03125 0.195090322 0.03125
0.195090322 0.03125 0.195090322 0.03125 0.195090322 0.03125
0.0980171403 0.015625 0.0980171403 0.015625 0.0980171403 0.015625
0.0980171403 0.015625 0.0980171403 0.015625 0.104121634 0.0166015625
0.104121634 0.0166015625 0.104121634 0.0166015625 0.104121634 0.0166015625
0.104121634 0.0166015625 0.195090322 0.03125 0.195090322 0.03125
0.195090322 0.03125 0.195090322 0.03125 0.195090322 0.03125
0.207111376 0.033203125 0.207111376 0.033203125 0.207111376 0.033203125
0.207111376 0.033203125 0.207111376 0.033203125 0.104121634 0.0166015625
0.104121634 0.0166015625 0.104121634 0.0166015625 0.104121634 0.0166015625
0.104121634 0.0166015625 0.110222207 0.017578125 0.110222207 0.017578125
0.110222207 0.017578125 0.110222207 0.017578125 0.110222207 0.017578125
0.207111376 0.033203125 0.207111376 0.033203125 0.207111376 0.033203125
0.207111376 0.033203125 0.207111376 0.033203125 0.21910124 0.03515625
0.21910124 0.03515625 0.21910124 0.03515625 0.21910124 0.03515625
0.21910124 0.03515625 0.110222207 0.017578125 0.110222207 0.017578125
0.110222207 0.017578125 0.110222207 0.017578125 0.110222207 0.017578125
0.116318631 0.0185546875 0.116318631 0.0185546875 0.116318631 0.0185546875
0.116318631 0.0185546875 0.116318631 0.0185546875 0.21910124 0.03515625
0.21910124 0.03515625 0.21910124 0.03515625 0.21910124 0.03515625
0.21910124 0.03515625 0.231058108 0.037109375 0.231058108 0.037109375
0.231058108 0.037109375 0.231058108 0.037109375 0.231058108 0.037109375
0.116318631 0.0185546875 0.116318631 0.0185546875 0.116318631 0.0185546875
0.116318631 0.0185546875 0.116318631 0.0185546875 0.122410675 0.01953125
0.122410675 0.01953125 0.122410675 0.01953125 0.122410675 0.01953125
0.122410675 0.01953125 0.231058108 0.037109375 0.231058108 0.037109375
0.231058108 0.037109375 0.231058108 0.037109375 0.231058108 0.037109375
0.24298018 0.0390625 0.24298018 0.0390625 0.24298018 0.0390625
0.24298018 0.0390625 0.24298018 0.0390625 0.122410675 0.01953125
0.122410675 0.01953125 0.122410675 0.01953125 0.122410675 0.01953125
0.122410675 0.01953125 0.128498111 0.0205078125 0.128498111 0.0205078125
0.128498111 0.0205078125 0.128498111 0.0205078125 0.128498111 0.0205078125
0.24298018 0.0390625 0.24298018 0.0390625 0.24298018 0.0390625
0.24298018 0.0390625 0.24298018 0.0390625 0.25486566 0.041015625
0.25486566 0.041015625 0.25486566 0.041015625 0.25486566 0.041015625
0.25486566 0.041015625 0.128498111 0.0205078125 0.128498111 0.0205078125
0.128498111 0.0205078125 0.128498111 0.0205078125 0.128498111 0.0205078125
0.134580709 0.021484375 0.134580709 0.021484375 0.134580709 0.021484375
0.134580709 0.021484375 0.134580709 0.021484375 0.25486566 0.041015625
0.25486566 0.041015625 0.25486566 0.041015625 0.25486566 0.041015625
0.25486566 0.041015625 0.266712757 0.04296875 0.266712757 0.04296875
0.266712757 0.04296875 0.266712757 0.04296875 0.266712757 0.04296875
0.134580709 0.021484375 0.134580709 0.021484375 0.134580709 0.021484375
0.134580709 0.021484375 0.134580709 0.021484375 0.140658239 0.0224609375
0.140658239 0.0224609375 0.140658239 0.0224609375 0.140658239 0.0224609375
0.140658239 0.0224609375 0.266712757 0.04296875 0.266712757 0.04296875
0.266712757 0.04296875 0.266712757 0.04296875 0.266712757 0.04296875
0.278519689 0.044921875 0.278519689 0.044921875 0.278519689 0.044921875