<VTKFile type="UnstructuredGrid" version="1.0" header_type="UInt32">
<UnstructuredGrid>
<Piece NumberOfPoints="3153" NumberOfCells="1599">
<Points>
<DataArray type="Float32" NumberOfComponents="3" format="ascii">
1.75739701 0 0 1.78864701 0 0
1.75739701 0.03125 0 1.78864701 0.03125 0
1.78864701 0 0 1.81989701 0 0
1.78864701 0.03125 0 1.81989701 0.03125 0
1.81989701 0 0 1.85114701 0 0
1.81989701 0.03125 0 1.85114701 0.03125 0
1.85114701 0 0 1.88239701 0 0
1.85114701 0.03125 0 1.88239701 0.03125 0
1.88239701 0 0 1.91364701 0 0
1.88239701 0.03125 0 1.91364701 0.03125 0
1.91364701 0 0 1.94489701 0 0
1.91364701 0.03125 0 1.94489701 0.03125 0
1.94489701 0 0 1.97614701 0 0
1.94489701 0.03125 0 1.97614701 0.03125 0
1.97614701 0 0 2.00739701 0 0
1.97614701 0.03125 0 2.00739701 0.03125 0
2.00739701 0 0 2.03864701 0 0
2.00739701 0.03125 0 2.03864701 0.03125 0
2.03864701 0 0 2.06989701 0 0
2.03864701 0.03125 0 2.06989701 0.03125 0
2.06989701 0 0 2.10114701 0 0
2.06989701 0.03125 0 2.10114701 0.03125 0
2.10114701 0 0 2.13239701 0 0
2.10114701 0.03125 0 2.13239701 0.03125 0
2.13239701 0 0 2.16364701 0 0
2.13239701 0.03125 0 2.16364701 0.03125 0
2.16364701 0 0 2.19489701 0 0
2.16364701 0.03125 0 2.19489701 0.03125 0
2.19489701 0 0 2.22614701 0 0
2.19489701 0.03125 0 2.22614701 0.03125 0
2.22614701 0 0 2.25739701 0 0
2.22614701 0.03125 0 2.25739701 0.03125 0
2.25739701 0 0 2.28864701 0 0
2.25739701 0.03125 0 2.28864701 0.03125 0
2.28864701 0 0 2.31989701 0 0
2.28864701 0.03125 0 2.31989701 0.03125 0
2.31989701 0 0 2.35114701 0 0
2.31989701 0.03125 0 2.35114701 0.03125 0
2.35114701 0 0 2.38239701 0 0
2.35114701 0.03125 0 2.38239701 0.03125 0
2.38239701 0 0 2.41364701 0 0
2.38239701 0.03125 0 2.41364701 0.03125 0
2.41364701 0 0 2.44489701 0 0
2.41364701 0.03125 0 2.44489701 0.03125 0
2.44489701 0 0 2.47614701 0 0
2.44489701 0.03125 0 2.47614701 0.03125 0
2.47614701 0 0 2.50739701 0 0
2.47614701 0.03125 0 2.50739701 0.03125 0
2.50739701 0 0 2.53864701 0 0
2.50739701 0.03125 0 2.53864701 0.03125 0
2.53864701 0 0 2.56989701 0 0
2.53864701 0.03125 0 2.56989701 0.03125 0
2.56989701 0 0 2.60114701 0 0
2.56989701 0.03125 0 2.60114701 0.03125 0
2.60114701 0 0 2.63239701 0 0
2.60114701 0.03125 0 2.63239701 0.03125 0
2.63239701 0 0 2.66364701 0 0
2.63239701 0.03125 0 2.66364701 0.03125 0
2.66364701 0 0 2.69489701 0 0
2.66364701 0.03125 0 2.69489701 0.03125 0
2.69489701 0 0 2.72614701 0 0
2.69489701 0.03125 0 2.72614701 0.03125 0
2.72614701 0 0 2.75739701 0 0
2.72614701 0.03125 0 2.75739701 0.03125 0
1.75739701 0.03125 0 1.78864701 0.03125 0
1.75739701 0.0625 0 1.78864701 0.0625 0
1.78864701 0.03125 0 1.81989701 0.03125 0
1.78864701 0.0625 0 1.81989701 0.0625 0
1.81989701 0.03125 0 1.85114701 0.03125 0
1.81989701 0.0625 0 1.85114701 0.0625 0
1.85114701 0.03125 0 1.88239701 0.03125 0
1.85114701 0.0625 0 1.88239701 0.0625 0
1.88239701 0.03125 0 1.91364701 0.03125 0
1.88239701 0.0625 0 1.91364701 0.0625 0
1.91364701 0.03125 0 1.94489701 0.03125 0
1.91364701 0.0625 0 1.94489701 0.0625 0
1.94489701 0.03125 0 1.97614701 0.03125 0
1.94489701 0.0625 0 1.97614701 0.0625 0
1.97614701 0.03125 0 2.00739701 0.03125 0
1.97614701 0.0625 0 2.00739701 0.0625 0
2.00739701 0.03125 0 2.03864701 0.03125 0
2.00739701 0.0625 0 2.03864701 0.0625 0
2.03864701 0.03125 0 2.06989701 0.03125 0
2.03864701 0.0625 0 2.06989701 0.0625 0
2.06989701 0.03125 0 2.10114701 0.03125 0
2.06989701 0.0625 0 2.10114701 0.0625 0
2.10114701 0.03125 0 2.13239701 0.03125 0
2.10114701 0.0625 0 2.13239701 0.0625 0
2.13239701 0.03125 0 2.16364701 0.03125 0
2.13239701 0.0625 0 2.16364701 0.0625 0
2.16364701 0.03125 0 2.19489701 0.03125 0
2.16364701 0.0625 0 2.19489701 0.0625 0
2.19489701 0.03125 0 2.22614701 0.03125 0
2.19489701 0.0625 0 2.22614701 0.0625 0
2.22614701 0.03125 0 2.25739701 0.03125 0
2.22614701 0.0625 0 2.25739701 0.0625 0
2.25739701 0.03125 0 2.28864701 0.03125 0
2.25739701 0.0625 0 2.28864701 0.0625 0
2.28864701 0.03125 0 2.31989701 0.03125 0
2.28864701 0.0625 0 2.31989701 0.0625 0
2.31989701 0.03125 0 2.35114701 0.03125 0
2.31989701 0.0625 0 2.35114701 0.0625 0
2.35114701 0.03125 0 2.38239701 0.03125 0
2.35114701 0.0625 0 2.38239701 0.0625 0
2.38239701 0.03125 0 2.41364701 0.03125 0
2.38239701 0.0625 0 2.41364701 0.0625 0
2.41364701 0.03125 0 2.44489701 0.03125 0
2.41364701 0.0625 0 2.44489701 0.0625 0
2.44489701 0.03125 0 2.47614701 0.03125 0
2.44489701 0.0625 0 2.47614701 0.0625 0
2.47614701 0.03125 0 2.50739701 0.03125 0
2.47614701 0.0625 0 2.50739701 0.0625 0
2.50739701 0.03125 0 2.53864701 0.03125 0
2.50739701 0.0625 0 2.53864701 0.0625 0
2.53864701 0.03125 0 2.56989701 0.03125 0
2.53864701 0.0625 0 2.56989701 0.0625 0
2.56989701 0.03125 0 2.60114701 0.03125 0
2.56989701 0.0625 0 2.60114701 0.0625 0
2.60114701 0.03125 0 2.63239701 0.03125 0
2.60114701 0.0625 0 2.63239701 0.0625 0
2.63239701 0.03125 0 2.66364701 0.03125 0
2.63239701 0.0625 0 2.66364701 0.0625 0
2.66364701 0.03125 0 2.69489701 0.03125 0
2.66364701 0.0625 0 2.69489701 0.0625 0
2.69489701 0.03125 0 2.72614701 0.03125 0
2.69489701 0.0625 0 2.72614701 0.0625 0
2.72614701 0.03125 0 2.75739701 0.03125 0
2.72614701 0.0625 0 2.75739701 0.0625 0
1.75739701 0.0625 0 1.78864701 0.0625 0
1.75739701 0.09375 0 1.78864701 0.09375 0
1.78864701 0.0625 0 1.81989701 0.0625 0
1.78864701 0.09375 0 1.81989701 0.09375 0
1.81989701 0.0625 0 1.85114701 0.0625 0
1.81989701 0.09375 0 1.85114701 0.09375 0
1.85114701 0.0625 0 1.88239701 0.0625 0
1.85114701 0.09375 0 1.88239701 0.09375 0
1.88239701 0.0625 0 1.91364701 0.0625 0
1.88239701 0.09375 0 1.91364701 0.09375 0
1.91364701 0.0625 0 1.94489701 0.0625 0
1.91364701 0.09375 0 1.94489701 0.09375 0
1.94489701 0.0625 0 1.97614701 0.0625 0
1.94489701 0.09375 0 1.97614701 0.09375 0
1.97614701 0.0625 0 2.00739701 0.0625 0
1.97614701 0.09375 0 2.00739701 0.09375 0
2.00739701 0.0625 0 2.03864701 0.0625 0
2.00739701 0.09375 0 2.03864701 0.09375 0
2.03864701 0.0625 0 2.06989701 0.0625 0
2.03864701 0.09375 0 2.06989701 0.09375 0
2.06989701 0.0625 0 2.10114701 0.0625 0
2.06989701 0.09375 0 2.10114701 0.09375 0
2.10114701 0.0625 0 2.13239701 0.0625 0
2.10114701 0.09375 0 2.13239701 0.09375 0
2.13239701 0.0625 0 2.16364701 0.0625 0
2.13239701 0.09375 0 2.16364701 0.09375 0
2.16364701 0.0625 0 2.19489701 0.0625 0
2.16364701 0.09375 0 2.19489701 0.09375 0
2.19489701 0.0625 0 2.22614701 0.0625 0
2.19489701 0.09375 0 2.22614701 0.09375 0
2.22614701 0.0625 0 2.25739701 0.0625 0
2.22614701 0.09375 0 2.25739701 0.09375 0
2.25739701 0.0625 0 2.28864701 0.0625 0
2.25739701 0.09375 0 2.28864701 0.09375 0
2.28864701 0.0625 0 2.31989701 0.0625 0
2.28864701 0.09375 0 2.31989701 0.09375 0
2.31989701 0.0625 0 2.35114701 0.0625 0
2.31989701 0.09375 0 2.35114701 0.09375 0
2.35114701 0.0625 0 2.38239701 0.0625 0
2.35114701 0.09375 0 2.38239701 0.09375 0
2.38239701 0.0625 0 2.41364701 0.0625 0
2.38239701 0.09375 0 2.41364701 0.09375 0
2.41364701 0.0625 0 2.44489701 0.0625 0
2.41364701 0.09375 0 2.44489701 0.09375 0
2.44489701 0.0625 0 2.47614701 0.0625 0
2.44489701 0.09375 0 2.47614701 0.09375 0
2.47614701 0.0625 0 2.50739701 0.0625 0
2.47614701 0.09375 0 2.50739701 0.09375 0
2.50739701 0.0625 0 2.53864701 0.0625 0
2.50739701 0.09375 0 2.53864701 0.09375 0
2.53864701 0.0625 0 2.56989701 0.0625 0
2.53864701 0.09375 0 2.56989701 0.09375 0
2.56989701 0.0625 0 2.60114701 0.0625 0
2.56989701 0.09375 0 2.60114701 0.09375 0
2.60114701 0.0625 0 2.63239701 0.0625 0
2.60114701 0.09375 0 2.63239701 0.09375 0
2.63239701 0.0625 0 2.66364701 0.0625 0
2.63239701 0.09375 0 2.66364701 0.09375 0
2.66364701 0.0625 0 2.69489701 0.0625 0
2.66364701 0.09375 0 2.69489701 0.09375 0
2.69489701 0.0625 0 2.72614701 0.0625 0
2.69489701 0.09375 0 2.72614701 0.09375 0
2.72614701 0.0625 0 2.75739701 0.0625 0
2.72614701 0.09375 0 2.75739701 0.09375 0
1.75739701 0.09375 0 1.78864701 0.09375 0
1.75739701 0.125 0 1.78864701 0.125 0
1.78864701 0.09375 0 1.81989701 0.09375 0
1.78864701 0.125 0 1.81989701 0.125 0
1.81989701 0.09375 0 1.85114701 0.09375 0
1.81989701 0.125 0 1.85114701 0.125 0
1.85114701 0.09375 0 1.88239701 0.09375 0
1.85114701 0.125 0 1.88239701 0.125 0
1.88239701 0.09375 0 1.91364701 0.09375 0
1.88239701 0.125 0 1.91364701 0.125 0
1.91364701 0.09375 0 1.94489701 0.09375 0
1.91364701 0.125 0 1.94489701 0.125 0
1.94489701 0.09375 0 1.97614701 0.09375 0
1.94489701 0.125 0 1.97614701 0.125 0
1.97614701 0.09375 0 2.00739701 0.09375 0
1.97614701 0.125 0 2.00739701 0.125 0
2.00739701 0.09375 0 2.03864701 0.09375 0
2.00739701 0.125 0 2.03864701 0.125 0
2.03864701 0.09375 0 2.06989701 0.09375 0
2.03864701 0.125 0 2.06989701 0.125 0
2.06989701 0.09375 0 2.10114701 0.09375 0
2.06989701 0.125 0 2.10114701 0.125 0
2.10114701 0.09375 0 2.13239701 0.09375 0
2.10114701 0.125 0 2.13239701 0.125 0
2.13239701 0.09375 0 2.16364701 0.09375 0
2.13239701 0.125 0 2.16364701 0.125 0
2.16364701 0.09375 0 2.19489701 0.09375 0
2.16364701 0.125 0 2.19489701 0.125 0
2.19489701 0.09375 0 2.22614701 0.09375 0
2.19489701 0.125 0 2.22614701 0.125 0
2.22614701 0.09375 0 2.25739701 0.09375 0
2.22614701 0.125 0 2.25739701 0.125 0
2.25739701 0.09375 0 2.28864701 0.09375 0
2.25739701 0.125 0 2.28864701 0.125 0
2.28864701 0.09375 0 2.31989701 0.09375 0
2.28864701 0.125 0 2.31989701 0.125 0
2.31989701 0.09375 0 2.35114701 0.09375 0
2.31989701 0.125 0 2.35114701 0.125 0
2.35114701 0.09375 0 2.38239701 0.09375 0
2.35114701 0.125 0 2.38239701 0.125 0
2.38239701 0.09375 0 2.41364701 0.09375 0
2.38239701 0.125 0 2.41364701 0.125 0
2.41364701 0.09375 0 2.44489701 0.09375 0
2.41364701 0.125 0 2.44489701 0.125 0
2.44489701 0.09375 0 2.47614701 0.09375 0
2.44489701 0.125 0 2.47614701 0.125 0
2.47614701 0.09375 0 2.50739701 0.09375 0
2.47614701 0.125 0 2.50739701 0.125 0
2.50739701 0.09375 0 2.53864701 0.09375 0
2.50739701 0.125 0 2.53864701 0.125 0
2.53864701 0.09375 0 2.56989701 0.09375 0
2.53864701 0.125 0 2.56989701 0.125 0
2.56989701 0.09375 0 2.60114701 0.09375 0
2.56989701 0.125 0 2.60114701 0.125 0
2.60114701 0.09375 0 2.63239701 0.09375 0
[...]
<PointData>
<DataArray Name="g" type="Float32" NumberOfComponents="10" format="ascii">
0 0 0 0 0 0
0 0 0 0 0 0
0 0 0 0 0 0
0 0 0.338256996 0.0549186565 0.338256996 0.0549186565
0.338256996 0.0549186565 0.338256996 0.0549186565 0.338256996 0.0549186565
0.344024825 0.055895219 0.344024825 0.055895219 0.344024825 0.055895219
0.344024825 0.055895219 0.344024825 0.055895219 0 0
0 0 0 0 0 0
0 0 0 0 0 0
0 0 0 0 0 0
0.344024825 0.055895219 0.344024825 0.055895219 0.344024825 0.055895219
0.344024825 0.055895219 0.344024825 0.055895219 0.349779703 0.0568717815
0.349779703 0.0568717815 0.349779703 0.0568717815 0.349779703 0.0568717815
0.349779703 0.0568717815 0 0 0 0
0 0 0 0 0 0
0 0 0 0 0 0
0 0 0 0 0.349779703 0.0568717815
0.349779703 0.0568717815 0.349779703 0.0568717815 0.349779703 0.0568717815
0.349779703 0.0568717815 0.355521411 0.057848344 0.355521411 0.057848344
0.355521411 0.057848344 0.355521411 0.057848344 0.355521411 0.057848344
0 0 0 0 0 0
0 0 0 0 0 0
0 0 0 0 0 0
0 0 0.355521411 0.057848344 0.355521411 0.057848344
0.355521411 0.057848344 0.355521411 0.057848344 0.355521411 0.057848344
0.361249735 0.0588249065 0.361249735 0.0588249065 0.361249735 0.0588249065
0.361249735 0.0588249065 0.361249735 0.0588249065 0 0
0 0 0 0 0 0
0 0 0 0 0 0
0 0 0 0 0 0
0.361249735 0.0588249065 0.361249735 0.0588249065 0.361249735 0.0588249065
0.361249735 0.0588249065 0.361249735 0.0588249065 0.366964457 0.059801469
0.366964457 0.059801469 0.366964457 0.059801469 0.366964457 0.059801469
0.366964457 0.059801469 0 0 0 0
0 0 0 0 0 0
0 0 0 0 0 0
0 0 0 0 0.366964457 0.059801469
0.366964457 0.059801469 0.366964457 0.059801469 0.366964457 0.059801469
0.366964457 0.059801469 0.372665363 0.0607780315 0.372665363 0.0607780315
0.372665363 0.0607780315 0.372665363 0.0607780315 0.372665363 0.0607780315
0 0 0 0 0 0
0 0 0 0 0 0
0 0 0 0 0 0
0 0 0.372665363 0.0607780315 0.372665363 0.0607780315
0.372665363 0.0607780315 0.372665363 0.0607780315 0.372665363 0.0607780315
0.378352239 0.061754594 0.378352239 0.061754594 0.378352239 0.061754594
0.378352239 0.061754594 0.378352239 0.061754594 0 0
0 0 0 0 0 0
0 0 0 0 0 0
0 0 0 0 0 0
0.378352239 0.061754594 0.378352239 0.061754594 0.378352239 0.061754594
0.378352239 0.061754594 0.378352239 0.061754594 0.38402487 0.0627311565
0.38402487 0.0627311565 0.38402487 0.0627311565 0.38402487 0.0627311565
0.38402487 0.0627311565 0 0 0 0
0 0 0 0 0 0
0 0 0 0 0 0
0 0 0 0 0.38402487 0.0627311565
0.38402487 0.0627311565 0.38402487 0.0627311565 0.38402487 0.0627311565
0.38402487 0.0627311565 0.389683043 0.063707719 0.389683043 0.063707719
0.389683043 0.063707719 0.389683043 0.063707719 0.389683043 0.063707719
0 0 0 0 0 0
0 0 0 0 0 0
0 0 0 0 0 0
0 0 0.389683043 0.063707719 0.389683043 0.063707719
0.389683043 0.063707719 0.389683043 0.063707719 0.389683043 0.063707719
0.395326544 0.0646842815 0.395326544 0.0646842815 0.395326544 0.0646842815
0.395326544 0.0646842815 0.395326544 0.0646842815 0 0
0 0 0 0 0 0
0 0 0 0 0 0
0 0 0 0 0 0
0.395326544 0.0646842815 0.395326544 0.0646842815 0.395326544 0.0646842815
0.395326544 0.0646842815 0.395326544 0.0646842815 0.400955162 0.065660844
0.400955162 0.065660844 0.400955162 0.065660844 0.400955162 0.065660844
0.400955162 0.065660844 0 0 0 0
0 0 0 0 0 0
0 0 0 0 0 0
0 0 0 0 0.400955162 0.065660844
0.400955162 0.065660844 0.400955162 0.065660844 0.400955162 0.065660844
0.400955162 0.065660844 0.406568684 0.0666374065 0.406568684 0.0666374065
0.406568684 0.0666374065 0.406568684 0.0666374065 0.406568684 0.0666374065
0 0 0 0 0 0
0 0 0 0 0 0
0 0 0 0 0 0
0 0 0.406568684 0.0666374065 0.406568684 0.0666374065
0.406568684 0.0666374065 0.406568684 0.0666374065 0.406568684 0.0666374065
0.412166898 0.067613969 0.412166898 0.067613969 0.412166898 0.067613969
0.412166898 0.067613969 0.412166898 0.067613969 0 0
0 0 0 0 0 0
0 0 0 0 0 0
0 0 0 0 0 0
0.412166898 0.067613969 0.412166898 0.067613969 0.412166898 0.067613969
0.412166898 0.067613969 0.412166898 0.067613969 0.417749595 0.0685905315
0.417749595 0.0685905315 0.417749595 0.0685905315 0.417749595 0.0685905315
0.417749595 0.0685905315 0 0 0 0
0 0 0 0 0 0
0 0 0 0 0 0
0 0 0 0 0.417749595 0.0685905315
0.417749595 0.0685905315 0.417749595 0.0685905315 0.417749595 0.0685905315
0.417749595 0.0685905315 0.423316564 0.069567094 0.423316564 0.069567094
0.423316564 0.069567094 0.423316564 0.069567094 0.423316564 0.069567094
0 0 0 0 0 0
0 0 0 0 0 0
0 0 0 0 0 0
0 0 0.423316564 0.069567094 0.423316564 0.069567094
0.423316564 0.069567094 0.423316564 0.069567094 0.423316564 0.069567094
0.428867595 0.0705436565 0.428867595 0.0705436565 0.428867595 0.0705436565
0.428867595 0.0705436565 0.428867595 0.0705436565 0 0
0 0 0 0 0 0
0 0 0 0 0 0
0 0 0 0 0 0
0.428867595 0.0705436565 0.428867595 0.0705436565 0.428867595 0.0705436565
0.428867595 0.0705436565 0.428867595 0.0705436565 0.43440248 0.071520219
0.43440248 0.071520219 0.43440248 0.071520219 0.43440248 0.071520219
0.43440248 0.071520219 0 0 0 0
0 0 0 0 0 0
0 0 0 0 0 0
0 0 0 0 0.43440248 0.071520219
0.43440248 0.071520219 0.43440248 0.071520219 0.43440248 0.071520219
0.43440248 0.071520219 0.43992101 0.0724967815 0.43992101 0.0724967815
0.43992101 0.0724967815 0.43992101 0.0724967815 0.43992101 0.0724967815
0 0 0 0 0 0
0 0 0 0 0 0
0 0 0 0 0 0
0 0 0.43992101 0.0724967815 0.43992101 0.0724967815
0.43992101 0.0724967815 0.43992101 0.0724967815 0.43992101 0.0724967815
0.445422976 0.073473344 0.445422976 0.073473344 0.445422976 0.073473344
0.445422976 0.073473344 0.445422976 0.073473344 0 0
0 0 0 0 0 0
0 0 0 0 0 0
0 0 0 0 0 0
0.445422976 0.073473344 0.445422976 0.073473344 0.445422976 0.073473344
0.445422976 0.073473344 0.445422976 0.073473344 0.450908173 0.0744499065
0.450908173 0.0744499065 0.450908173 0.0744499065 0.450908173 0.0744499065
0.450908173 0.0744499065 0 0 0 0
0 0 0 0 0 0
0 0 0 0 0 0
0 0 0 0 0.450908173 0.0744499065
0.450908173 0.0744499065 0.450908173 0.0744499065 0.450908173 0.0744499065
0.450908173 0.0744499065 0.456376394 0.075426469 0.456376394 0.075426469
0.456376394 0.075426469 0.456376394 0.075426469 0.456376394 0.075426469
0 0 0 0 0 0
0 0 0 0 0 0
0 0 0 0 0 0
0 0 0.456376394 0.075426469 0.456376394 0.075426469
0.456376394 0.075426469 0.456376394 0.075426469 0.456376394 0.075426469
0.461827432 0.0764030315 0.461827432 0.0764030315 0.461827432 0.0764030315
0.461827432 0.0764030315 0.461827432 0.0764030315 0 0
0 0 0 0 0 0
0 0 0 0 0 0
0 0 0 0 0 0
0.461827432 0.0764030315 0.461827432 0.0764030315 0.461827432 0.0764030315
0.461827432 0.0764030315 0.461827432 0.0764030315 0.467261083 0.077379594
0.467261083 0.077379594 0.467261083 0.077379594 0.467261083 0.077379594
0.467261083 0.077379594 0 0 0 0
0 0 0 0 0 0
0 0 0 0 0 0
0 0 0 0 0.467261083 0.077379594
0.467261083 0.077379594 0.467261083 0.077379594 0.467261083 0.077379594
0.467261083 0.077379594 0.472677141 0.0783561565 0.472677141 0.0783561565
0.472677141 0.0783561565 0.472677141 0.0783561565 0.472677141 0.0783561565
0 0 0 0 0 0
0 0 0 0 0 0
0 0 0 0 0 0
0 0 0.472677141 0.0783561565 0.472677141 0.0783561565
0.472677141 0.0783561565 0.472677141 0.0783561565 0.472677141 0.0783561565
0.478075403 0.079332719 0.478075403 0.079332719 0.478075403 0.079332719
0.478075403 0.079332719 0.478075403 0.079332719 0 0
0 0 0 0 0 0
0 0 0 0 0 0
0 0 0 0 0 0
0.478075403 0.079332719 0.478075403 0.079332719 0.478075403 0.079332719
0.478075403 0.079332719 0.478075403 0.079332719 0.483455667 0.0803092815
0.483455667 0.0803092815 0.483455667 0.0803092815 0.483455667 0.0803092815
0.483455667 0.0803092815 0 0 0 0
0 0 0 0 0 0
0 0 0 0 0 0
0 0 0 0 0.483455667 0.0803092815
0.483455667 0.0803092815 0.483455667 0.0803092815 0.483455667 0.0803092815
0.483455667 0.0803092815 0.488817728 0.081285844 0.488817728 0.081285844
0.488817728 0.081285844 0.488817728 0.081285844 0.488817728 0.081285844
0 0 0 0 0 0
0 0 0 0 0 0
0 0 0 0 0 0
0 0 0.488817728 0.081285844 0.488817728 0.081285844
0.488817728 0.081285844 0.488817728 0.081285844 0.488817728 0.081285844
0.494161386 0.0822624065 0.494161386 0.0822624065 0.494161386 0.0822624065
0.494161386 0.0822624065 0.494161386 0.0822624065 0 0
0 0 0 0 0 0
0 0 0 0 0 0
0 0 0 0 0 0
0.494161386 0.0822624065 0.494161386 0.0822624065 0.494161386 0.0822624065
0.494161386 0.0822624065 0.494161386 0.0822624065 0.499486438 0.083238969
0.499486438 0.083238969 0.499486438 0.083238969 0.499486438 0.083238969
0.499486438 0.083238969 0 0 0 0
0 0 0 0 0 0
0 0 0 0 0 0
0 0 0 0 0.499486438 0.083238969
0.499486438 0.083238969 0.499486438 0.083238969 0.499486438 0.083238969
0.499486438 0.083238969 0.504792686 0.0842155315 0.504792686 0.0842155315
0.504792686 0.0842155315 0.504792686 0.0842155315 0.504792686 0.0842155315
0 0 0 0 0 0
0 0 0 0 0 0
0 0 0 0 0 0
0 0 0.504792686 0.0842155315 0.504792686 0.0842155315
0.504792686 0.0842155315 0.504792686 0.0842155315 0.504792686 0.0842155315
0.510079928 0.085192094 0.510079928 0.085192094 0.510079928 0.085192094
0.510079928 0.085192094 0.510079928 0.085192094 0 0
0 0 0 0 0 0
0 0 0 0 0 0
0 0 0 0 0 0
0.510079928 0.085192094 0.510079928 0.085192094 0.510079928 0.085192094
0.510079928 0.085192094 0.510079928 0.085192094 0.515347966 0.0861686565
0.515347966 0.0861686565 0.515347966 0.0861686565 0.515347966 0.0861686565
0.515347966 0.0861686565 0.338256996 0.0549186565 0.338256996 0.0549186565
0.338256996 0.0549186565 0.338256996 0.0549186565 0.338256996 0.0549186565
0.344024825 0.055895219 0.344024825 0.055895219 0.344024825 0.055895219
0.344024825 0.055895219 0.344024825 0.055895219 0.636636044 0.109837313
0.636636044 0.109837313 0.636636044 0.109837313 0.636636044 0.109837313
0.636636044 0.109837313 0.64605148 0.111790438 0.64605148 0.111790438
0.64605148 0.111790438 0.64605148 0.111790438 0.64605148 0.111790438
0.344024825 0.055895219 0.344024825 0.055895219 0.344024825 0.055895219
0.344024825 0.055895219 0.344024825 0.055895219 0.349779703 0.0568717815
0.349779703 0.0568717815 0.349779703 0.0568717815 0.349779703 0.0568717815
0.349779703 0.0568717815 0.64605148 0.111790438 0.64605148 0.111790438
0.64605148 0.111790438 0.64605148 0.111790438 0.64605148 0.111790438
0.655369623 0.113743563 0.655369623 0.113743563 0.655369623 0.113743563
0.655369623 0.113743563 0.655369623 0.113743563 0.349779703 0.0568717815
0.349779703 0.0568717815 0.349779703 0.0568717815 0.349779703 0.0568717815
0.349779703 0.0568717815 0.355521411 0.057848344 0.355521411 0.057848344
0.355521411 0.057848344 0.355521411 0.057848344 0.355521411 0.057848344
0.655369623 0.113743563 0.655369623 0.113743563 0.655369623 0.113743563
0.655369623 0.113743563 0.655369623 0.113743563 0.66458907 0.115696688
0.66458907 0.115696688 0.66458907 0.115696688 0.66458907 0.115696688
0.66458907 0.115696688 0.355521411 0.057848344 0.355521411 0.057848344
0.355521411 0.057848344 0.355521411 0.057848344 0.355521411 0.057848344
0.361249735 0.0588249065 0.361249735 0.0588249065 0.361249735 0.0588249065
0.361249735 0.0588249065 0.361249735 0.0588249065 0.66458907 0.115696688
0.66458907 0.115696688 0.66458907 0.115696688 0.66458907 0.115696688
0.66458907 0.115696688 0.673708432 0.117649813 0.673708432 0.117649813
0.673708432 0.117649813 0.673708432 0.117649813 0.673708432 0.117649813
0.361249735 0.0588249065 0.361249735 0.0588249065 0.361249735 0.0588249065
0.361249735 0.0588249065 0.361249735 0.0588249065 0.366964457 0.059801469
0.366964457 0.059801469 0.366964457 0.059801469 0.366964457 0.059801469
0.366964457 0.059801469 0.673708432 0.117649813 0.673708432 0.117649813
0.673708432 0.117649813 0.673708432 0.117649813 0.673708432 0.117649813
0.682726337 0.119602938 0.682726337 0.119602938 0.682726337 0.119602938
0.682726337 0.119602938 0.682726337 0.119602938 0.366964457 0.059801469
0.366964457 0.059801469 0.366964457 0.059801469 0.366964457 0.059801469
0.366964457 0.059801469 0.372665363 0.0607780315 0.372665363 0.0607780315
0.372665363 0.0607780315 0.372665363 0.0607780315 0.372665363 0.0607780315
0.682726337 0.119602938 0.682726337 0.119602938 0.682726337 0.119602938
0.682726337 0.119602938 0.682726337 0.119602938 0.691641425 0.121556063
0.691641425 0.121556063 0.691641425 0.121556063 0.691641425 0.121556063
0.691641425 0.121556063 0.372665363 0.0607780315 0.372665363 0.0607780315
0.372665363 0.0607780315 0.372665363 0.0607780315 0.372665363 0.0607780315
0.378352239 0.061754594 0.378352239 0.061754594 0.378352239 0.061754594
0.378352239 0.061754594 0.378352239 0.061754594 0.691641425 0.121556063
0.691641425 0.121556063 0.691641425 0.121556063 0.691641425 0.121556063
0.691641425 0.121556063 0.700452354 0.123509188 0.700452354 0.123509188
0.700452354 0.123509188 0.700452354 0.123509188 0.700452354 0.123509188
0.378352239 0.061754594 0.378352239 0.061754594 0.378352239 0.061754594
0.378352239 0.061754594 0.378352239 0.061754594 0.38402487 0.0627311565
0.38402487 0.0627311565 0.38402487 0.0627311565 0.38402487 0.0627311565
0.38402487 0.0627311565 0.700452354 0.123509188 0.700452354 0.123509188
0.700452354 0.123509188 0.700452354 0.123509188 0.700452354 0.123509188
0.709157798 0.125462313 0.709157798 0.125462313 0.709157798 0.125462313
0.709157798 0.125462313 0.709157798 0.125462313 0.38402487 0.0627311565
0.38402487 0.0627311565 0.38402487 0.0627311565 0.38402487 0.0627311565
0.38402487 0.0627311565 0.389683043 0.063707719 0.389683043 0.063707719
0.389683043 0.063707719 0.389683043 0.063707719 0.389683043 0.063707719
0.709157798 0.125462313 0.709157798 0.125462313 0.709157798 0.125462313
0.709157798 0.125462313 0.709157798 0.125462313 0.717756445 0.127415438
0.717756445 0.127415438 0.717756445 0.127415438 0.717756445 0.127415438
0.717756445 0.127415438 0.389683043 0.063707719 0.389683043 0.063707719
0.389683043 0.063707719 0.389683043 0.063707719 0.389683043 0.063707719
0.395326544 0.0646842815 0.395326544 0.0646842815 0.395326544 0.0646842815
0.395326544 0.0646842815 0.395326544 0.0646842815 0.717756445 0.127415438
0.717756445 0.127415438 0.717756445 0.127415438 0.717756445 0.127415438
0.717756445 0.127415438 0.726247001 0.129368563 0.726247001 0.129368563
0.726247001 0.129368563 0.726247001 0.129368563 0.726247001 0.129368563
0.395326544 0.0646842815 0.395326544 0.0646842815 0.395326544 0.0646842815
0.395326544 0.0646842815 0.395326544 0.0646842815 0.400955162 0.065660844
0.400955162 0.065660844 0.400955162 0.065660844 0.400955162 0.065660844
0.400955162 0.065660844 0.726247001 0.129368563 0.726247001 0.129368563
0.726247001 0.129368563 0.726247001 0.129368563 0.726247001 0.129368563
0.734628187 0.131321688 0.734628187 0.131321688 0.734628187 0.131321688
0.734628187 0.131321688 0.734628187 0.131321688 0.400955162 0.065660844
0.400955162 0.065660844 0.400955162 0.065660844 0.400955162 0.065660844
0.400955162 0.065660844 0.406568684 0.0666374065 0.406568684 0.0666374065
0.406568684 0.0666374065 0.406568684 0.0666374065 0.406568684 0.0666374065
0.734628187 0.131321688 0.734628187 0.131321688 0.734628187 0.131321688
0.734628187 0.131321688 0.734628187 0.131321688 0.74289874 0.133274813
0.74289874 0.133274813 0.74289874 0.133274813 0.74289874 0.133274813
0.74289874 0.133274813 0.406568684 0.0666374065 0.406568684 0.0666374065
0.406568684 0.0666374065 0.406568684 0.0666374065 0.406568684 0.0666374065
0.412166898 0.067613969 0.412166898 0.067613969 0.412166898 0.067613969
0.412166898 0.067613969 0.412166898 0.067613969 0.74289874 0.133274813
0.74289874 0.133274813 0.74289874 0.133274813 0.74289874 0.133274813
0.74289874 0.133274813 0.751057416 0.135227938 0.751057416 0.135227938
0.751057416 0.135227938 0.751057416 0.135227938 0.751057416 0.135227938
0.412166898 0.067613969 0.412166898 0.067613969 0.412166898 0.067613969
0.412166898 0.067613969 0.412166898 0.067613969 0.417749595 0.0685905315
0.417749595 0.0685905315 0.417749595 0.0685905315 0.417749595 0.0685905315
0.417749595 0.0685905315 0.751057416 0.135227938 0.751057416 0.135227938
0.751057416 0.135227938 0.751057416 0.135227938 0.751057416 0.135227938
0.759102985 0.137181063 0.759102985 0.137181063 0.759102985 0.137181063
0.759102985 0.137181063 0.759102985 0.137181063 0.417749595 0.0685905315
0.417749595 0.0685905315 0.417749595 0.0685905315 0.417749595 0.0685905315
0.417749595 0.0685905315 0.423316564 0.069567094 0.423316564 0.069567094
0.423316564 0.069567094 0.423316564 0.069567094 0.423316564 0.069567094
0.759102985 0.137181063 0.759102985 0.137181063 0.759102985 0.137181063
0.759102985 0.137181063 0.759102985 0.137181063 0.767034236 0.139134188
0.767034236 0.139134188 0.767034236 0.139134188 0.767034236 0.139134188
0.767034236 0.139134188 0.423316564 0.069567094 0.423316564 0.069567094
0.423316564 0.069567094 0.423316564 0.069567094 0.423316564 0.069567094
0.428867595 0.0705436565 0.428867595 0.0705436565 0.428867595 0.0705436565
0.428867595 0.0705436565 0.428867595 0.0705436565 0.767034236 0.139134188
0.767034236 0.139134188 0.767034236 0.139134188 0.767034236 0.139134188
0.767034236 0.139134188 0.774849974 0.141087313 0.774849974 0.141087313
0.774849974 0.141087313 0.774849974 0.141087313 0.774849974 0.141087313
0.428867595 0.0705436565 0.428867595 0.0705436565 0.428867595 0.0705436565
0.428867595 0.0705436565 0.428867595 0.0705436565 0.43440248 0.071520219
0.43440248 0.071520219 0.43440248 0.071520219 0.43440248 0.071520219
0.43440248 0.071520219 0.774849974 0.141087313 0.774849974 0.141087313
0.774849974 0.141087313 0.774849974 0.141087313 0.774849974 0.141087313
0.782549023 0.143040438 0.782549023 0.143040438 0.782549023 0.143040438
0.782549023 0.143040438 0.782549023 0.143040438 0.43440248 0.071520219
0.43440248 0.071520219 0.43440248 0.071520219 0.43440248 0.071520219
0.43440248 0.071520219 0.43992101 0.0724967815 0.43992101 0.0724967815
0.43992101 0.0724967815 0.43992101 0.0724967815 0.43992101 0.0724967815
0.782549023 0.143040438 0.782549023 0.143040438 0.782549023 0.143040438
0.782549023 0.143040438 0.782549023 0.143040438 0.790130223 0.144993563
0.790130223 0.144993563 0.790130223 0.144993563 0.790130223 0.144993563
0.790130223 0.144993563 0.43992101 0.0724967815 0.43992101 0.0724967815
0.43992101 0.0724967815 0.43992101 0.0724967815 0.43992101 0.0724967815
0.445422976 0.073473344 0.445422976 0.073473344 0.445422976 0.073473344
0.445422976 0.073473344 0.445422976 0.073473344 0.790130223 0.144993563
0.790130223 0.144993563 0.790130223 0.144993563 0.790130223 0.144993563
0.790130223 0.144993563 0.797592432 0.146946688 0.797592432 0.146946688
0.797592432 0.146946688 0.797592432 0.146946688 0.797592432 0.146946688
0.445422976 0.073473344 0.445422976 0.073473344 0.445422976 0.073473344
0.445422976 0.073473344 0.445422976 0.073473344 0.450908173 0.0744499065
0.450908173 0.0744499065 0.450908173 0.0744499065 0.450908173 0.0744499065
0.450908173 0.0744499065 0.797592432 0.146946688 0.797592432 0.146946688
0.797592432 0.146946688 0.797592432 0.146946688 0.797592432 0.146946688
0.804934527 0.148899813 0.804934527 0.148899813 0.804934527 0.148899813
0.804934527 0.148899813 0.804934527 0.148899813 0.450908173 0.0744499065
0.450908173 0.0744499065 0.450908173 0.0744499065 0.450908173 0.0744499065
0.450908173 0.0744499065 0.456376394 0.075426469 0.456376394 0.075426469
0.456376394 0.075426469 0.456376394 0.075426469 0.456376394 0.075426469
0.804934527 0.148899813 0.804934527 0.148899813 0.804934527 0.148899813
0.804934527 0.148899813 0.804934527 0.148899813 0.812155401 0.150852938
0.812155401 0.150852938 0.812155401 0.150852938 0.812155401 0.150852938
0.812155401 0.150852938 0.456376394 0.075426469 0.456376394 0.075426469
0.456376394 0.075426469 0.456376394 0.075426469 0.456376394 0.075426469
0.461827432 0.0764030315 0.461827432 0.0764030315 0.461827432 0.0764030315
0.461827432 0.0764030315 0.461827432 0.0764030315 0.812155401 0.150852938
0.812155401 0.150852938 0.812155401 0.150852938 0.812155401 0.150852938
0.812155401 0.150852938 0.819253968 0.152806063 0.819253968 0.152806063
0.819253968 0.152806063 0.819253968 0.152806063 0.819253968 0.152806063
0.461827432 0.0764030315 0.461827432 0.0764030315 0.461827432 0.0764030315
0.461827432 0.0764030315 0.461827432 0.0764030315 0.467261083 0.077379594